Program Version,EnergyPlus, Version 9.6.0-f420c06a69, YMD=2022.04.09 18:27
1,5,Environment Title[],Latitude[deg],Longitude[deg],Time Zone[],Elevation[m]
2,8,Day of Simulation[],Month[],Day of Month[],DST Indicator[1=yes 0=no],Hour[],StartMinute[],EndMinute[],DayType
3,5,Cumulative Day of Simulation[],Month[],Day of Month[],DST Indicator[1=yes 0=no],DayType  ! When Daily Report Variables Requested
4,2,Cumulative Days of Simulation[],Month[]  ! When Monthly Report Variables Requested
5,1,Cumulative Days of Simulation[] ! When Run Period Report Variables Requested
6,1,Calendar Year of Simulation[] ! When Annual Report Variables Requested
7,1,Environment,Site Outdoor Air Drybulb Temperature [C] !Hourly
493,1,CRAWL ZONE,Zone Mean Air Temperature [C] !Hourly
495,1,LIVING ZONE,Zone Mean Air Temperature [C] !Hourly
497,1,RES DS RES AC ASYS RET AIR ZONE,Zone Mean Air Temperature [C] !Hourly
498,1,RES DS RES FUR GAS ASYS RET AIR ZONE,Zone Mean Air Temperature [C] !Hourly
634,1,CRAWL ZONE,Zone Thermostat Heating Setpoint Temperature [C] !Hourly
697,1,LIVING ZONE,Zone Thermostat Heating Setpoint Temperature [C] !Hourly
760,1,RES DS RES AC ASYS RET AIR ZONE,Zone Thermostat Heating Setpoint Temperature [C] !Hourly
823,1,RES DS RES FUR GAS ASYS RET AIR ZONE,Zone Thermostat Heating Setpoint Temperature [C] !Hourly
924,1,Heating:NaturalGas [J] !Hourly
End of Data Dictionary
1,RUN PERIOD 1,  39.74,-105.18,  -7.00,1829.00
2,1, 1, 1, 0, 1, 0.00,60.00,Sunday
7,-4.5
493,22.064253660956123
495,21.5
497,23.00000000000001
498,21.58254659755324
634,0.0
697,21.5
760,0.0
823,0.0
924,34167228.377077855
2,1, 1, 1, 0, 2, 0.00,60.00,Sunday
7,-3.0
493,21.572624507661317
495,21.5
497,23.000000000000014
498,21.550290988375757
634,0.0
697,21.5
760,0.0
823,0.0
924,31326491.472327504
2,1, 1, 1, 0, 3, 0.00,60.00,Sunday
7,-3.625
493,21.489487863171977
495,21.5
497,23.000000000000014
498,21.51119065156405
634,0.0
697,21.5
760,0.0
823,0.0
924,32181431.012703266
2,1, 1, 1, 0, 4, 0.00,60.00,Sunday
7,-2.75
493,21.592169510811303
495,21.5
497,23.00000000000001
498,21.508132592276546
634,0.0
697,21.5
760,0.0
823,0.0
924,31265368.388591796
2,1, 1, 1, 0, 5, 0.00,60.00,Sunday
7,-2.0
493,21.337453612960516
495,21.5
497,23.000000000000014
498,21.49811323546133
634,0.0
697,21.5
760,0.0
823,0.0
924,29958369.801131845
2,1, 1, 1, 0, 6, 0.00,60.00,Sunday
7,-1.375
493,21.2089999713666
495,21.5
497,23.00000000000001
498,21.48006284341057
634,0.0
697,21.5
760,0.0
823,0.0
924,28148838.897860423
2,1, 1, 1, 0, 7, 0.00,60.00,Sunday
7,-1.0
493,20.70290001428322
495,21.5
497,23.000000000000014
498,21.43624573166798
634,0.0
697,21.5
760,0.0
823,0.0
924,25687530.61853227
2,1, 1, 1, 0, 8, 0.00,60.00,Sunday
7,-1.0
493,20.797835957922477
495,21.5
497,23.00000000000001
498,21.400031074522722
634,0.0
697,21.5
760,0.0
823,0.0
924,25890777.216594614
2,1, 1, 1, 0, 9, 0.00,60.00,Sunday
7,-0.375
493,19.941113858766442
495,21.5
497,23.00000000000001
498,21.363568395705595
634,0.0
697,21.5
760,0.0
823,0.0
924,20778921.621459514
2,1, 1, 1, 0,10, 0.00,60.00,Sunday
7,1.25
493,19.51455099314149
495,21.5
497,23.00000000000001
498,21.269333599883225
634,0.0
697,21.5
760,0.0
823,0.0
924,19958379.047308326
2,1, 1, 1, 0,11, 0.00,60.00,Sunday
7,2.0
493,19.30119925265061
495,21.5
497,23.00000000000001
498,21.235738310657517
634,0.0
697,21.5
760,0.0
823,0.0
924,17500839.059120998
2,1, 1, 1, 0,12, 0.00,60.00,Sunday
7,1.375
493,19.45581179117583
495,21.5
497,23.000000000000014
498,21.215670521497362
634,0.0
697,21.5
760,0.0
823,0.0
924,20092767.007075265
2,1, 1, 1, 0,13, 0.00,60.00,Sunday
7,2.25
493,19.85501736203289
495,21.500003700975377
497,23.000000000000014
498,21.23292871926846
634,0.0
697,21.5
760,0.0
823,0.0
924,21018363.91132012
2,1, 1, 1, 0,14, 0.00,60.00,Sunday
7,2.375
493,19.888057758709245
495,21.499999999992067
497,23.000000000000014
498,21.256996031341572
634,0.0
697,21.5
760,0.0
823,0.0
924,21677264.072802678
2,1, 1, 1, 0,15, 0.00,60.00,Sunday
7,1.375
493,20.488290381021624
495,21.5
497,23.000000000000014
498,21.305076023753102
634,0.0
697,21.5
760,0.0
823,0.0
924,25428122.056489564
2,1, 1, 1, 0,16, 0.00,60.00,Sunday
7,1.0
493,20.77574912082008
495,21.5
497,23.00000000000001
498,21.363200527661192
634,0.0
697,21.5
760,0.0
823,0.0
924,26157117.64428395
2,1, 1, 1, 0,17, 0.00,60.00,Sunday
7,0.375
493,20.695132363289922
495,21.5
497,23.00000000000001
498,21.38468368576639
634,0.0
697,21.5
760,0.0
823,0.0
924,26639746.599446736
2,1, 1, 1, 0,18, 0.00,60.00,Sunday
7,-0.625
493,21.277763523274846
495,21.5
497,23.000000000000014
498,21.415406660966383
634,0.0
697,21.5
760,0.0
823,0.0
924,31908108.26117313
2,1, 1, 1, 0,19, 0.00,60.00,Sunday
7,-1.625
493,21.10664517682378
495,21.500000000000004
497,23.000000000000014
498,21.467291501437423
634,0.0
697,21.5
760,0.0
823,0.0
924,28739032.982946027
2,1, 1, 1, 0,20, 0.00,60.00,Sunday
7,-3.25
493,21.01778978144499
495,21.5
497,23.000000000000014
498,21.43029445944815
634,0.0
697,21.5
760,0.0
823,0.0
924,32415800.797711536
2,1, 1, 1, 0,21, 0.00,60.00,Sunday
7,-4.625
493,21.490664556028946
495,21.5
497,23.000000000000014
498,21.469634064405625
634,0.0
697,21.5
760,0.0
823,0.0
924,34545901.89862218
2,1, 1, 1, 0,22, 0.00,60.00,Sunday
7,-5.625
493,21.727596261739752
495,21.5
497,23.000000000000014
498,21.496781451780386
634,0.0
697,21.5
760,0.0
823,0.0
924,38873874.063597366
2,1, 1, 1, 0,23, 0.00,60.00,Sunday
7,-6.625
493,21.84625549830152
495,21.5
497,23.000000000000014
498,21.549933965498845
634,0.0
697,21.5
760,0.0
823,0.0
924,38084112.6947003
2,1, 1, 1, 0,24, 0.00,60.00,Sunday
7,-7.0
493,21.93454388530689
495,21.5
497,23.000000000000014
498,21.544326581823505
634,0.0
697,21.5
760,0.0
823,0.0
924,40462561.237530164
End of Data
 Number of Records Written=         240
