Program Version,EnergyPlus, Version 9.6.0-f420c06a69, YMD=2022.03.13 14:21
1,5,Environment Title[],Latitude[deg],Longitude[deg],Time Zone[],Elevation[m]
2,8,Day of Simulation[],Month[],Day of Month[],DST Indicator[1=yes 0=no],Hour[],StartMinute[],EndMinute[],DayType
3,5,Cumulative Day of Simulation[],Month[],Day of Month[],DST Indicator[1=yes 0=no],DayType  ! When Daily Report Variables Requested
4,2,Cumulative Days of Simulation[],Month[]  ! When Monthly Report Variables Requested
5,1,Cumulative Days of Simulation[] ! When Run Period Report Variables Requested
6,1,Calendar Year of Simulation[] ! When Annual Report Variables Requested
1101,1,Heating:Electricity [J] !Hourly
End of Data Dictionary
1,DENVER-AURORA-BUCKLEY.AFB_CO_USA ANN HTG 99.6% CONDNS DB,  39.74,-105.18,  -7.00,1829.00
2,1,12,21, 0, 1, 0.00,60.00,WinterDesignDay
1101,25921474.849250752
2,1,12,21, 0, 2, 0.00,60.00,WinterDesignDay
1101,25921474.849250752
2,1,12,21, 0, 3, 0.00,60.00,WinterDesignDay
1101,25921474.849250752
2,1,12,21, 0, 4, 0.00,60.00,WinterDesignDay
1101,25921474.849250752
2,1,12,21, 0, 5, 0.00,60.00,WinterDesignDay
1101,25921474.849250752
2,1,12,21, 0, 6, 0.00,60.00,WinterDesignDay
1101,25921474.849250752
2,1,12,21, 0, 7, 0.00,60.00,WinterDesignDay
1101,25921474.849250752
2,1,12,21, 0, 8, 0.00,60.00,WinterDesignDay
1101,25921474.849250752
2,1,12,21, 0, 9, 0.00,60.00,WinterDesignDay
1101,25921474.849250752
2,1,12,21, 0,10, 0.00,60.00,WinterDesignDay
1101,25921474.849250752
2,1,12,21, 0,11, 0.00,60.00,WinterDesignDay
1101,25921474.849250752
2,1,12,21, 0,12, 0.00,60.00,WinterDesignDay
1101,25921474.849250752
2,1,12,21, 0,13, 0.00,60.00,WinterDesignDay
1101,25921474.849250752
2,1,12,21, 0,14, 0.00,60.00,WinterDesignDay
1101,25921474.849250752
2,1,12,21, 0,15, 0.00,60.00,WinterDesignDay
1101,25921474.849250752
2,1,12,21, 0,16, 0.00,60.00,WinterDesignDay
1101,25921474.849250752
2,1,12,21, 0,17, 0.00,60.00,WinterDesignDay
1101,25921474.849250752
2,1,12,21, 0,18, 0.00,60.00,WinterDesignDay
1101,25921474.849250752
2,1,12,21, 0,19, 0.00,60.00,WinterDesignDay
1101,25921474.849250752
2,1,12,21, 0,20, 0.00,60.00,WinterDesignDay
1101,25921474.849250752
2,1,12,21, 0,21, 0.00,60.00,WinterDesignDay
1101,25921474.849250752
2,1,12,21, 0,22, 0.00,60.00,WinterDesignDay
1101,25921474.849250752
2,1,12,21, 0,23, 0.00,60.00,WinterDesignDay
1101,25921474.849250752
2,1,12,21, 0,24, 0.00,60.00,WinterDesignDay
1101,25921474.849250752
1,DENVER-AURORA-BUCKLEY.AFB_CO_USA ANN CLG .4% CONDNS DB=>MWB,  39.74,-105.18,  -7.00,1829.00
2,1, 7,21, 0, 1, 0.00,60.00,SummerDesignDay
1101,0.0
2,1, 7,21, 0, 2, 0.00,60.00,SummerDesignDay
1101,0.0
2,1, 7,21, 0, 3, 0.00,60.00,SummerDesignDay
1101,0.0
2,1, 7,21, 0, 4, 0.00,60.00,SummerDesignDay
1101,0.0
2,1, 7,21, 0, 5, 0.00,60.00,SummerDesignDay
1101,0.0
2,1, 7,21, 0, 6, 0.00,60.00,SummerDesignDay
1101,0.0
2,1, 7,21, 0, 7, 0.00,60.00,SummerDesignDay
1101,0.0
2,1, 7,21, 0, 8, 0.00,60.00,SummerDesignDay
1101,0.0
2,1, 7,21, 0, 9, 0.00,60.00,SummerDesignDay
1101,0.0
2,1, 7,21, 0,10, 0.00,60.00,SummerDesignDay
1101,0.0
2,1, 7,21, 0,11, 0.00,60.00,SummerDesignDay
1101,0.0
2,1, 7,21, 0,12, 0.00,60.00,SummerDesignDay
1101,0.0
2,1, 7,21, 0,13, 0.00,60.00,SummerDesignDay
1101,0.0
2,1, 7,21, 0,14, 0.00,60.00,SummerDesignDay
1101,0.0
2,1, 7,21, 0,15, 0.00,60.00,SummerDesignDay
1101,0.0
2,1, 7,21, 0,16, 0.00,60.00,SummerDesignDay
1101,0.0
2,1, 7,21, 0,17, 0.00,60.00,SummerDesignDay
1101,0.0
2,1, 7,21, 0,18, 0.00,60.00,SummerDesignDay
1101,0.0
2,1, 7,21, 0,19, 0.00,60.00,SummerDesignDay
1101,0.0
2,1, 7,21, 0,20, 0.00,60.00,SummerDesignDay
1101,0.0
2,1, 7,21, 0,21, 0.00,60.00,SummerDesignDay
1101,0.0
2,1, 7,21, 0,22, 0.00,60.00,SummerDesignDay
1101,0.0
2,1, 7,21, 0,23, 0.00,60.00,SummerDesignDay
1101,0.0
2,1, 7,21, 0,24, 0.00,60.00,SummerDesignDay
1101,0.0
1,ANNUAL,  39.74,-105.18,  -7.00,1829.00
2,1, 1, 1, 0, 1, 0.00,60.00,Sunday
1101,14785831.54939666
2,1, 1, 1, 0, 2, 0.00,60.00,Sunday
1101,12369667.326522462
2,1, 1, 1, 0, 3, 0.00,60.00,Sunday
1101,12707067.422282971
2,1, 1, 1, 0, 4, 0.00,60.00,Sunday
1101,12230751.465714525
2,1, 1, 1, 0, 5, 0.00,60.00,Sunday
1101,12151977.413048046
2,1, 1, 1, 0, 6, 0.00,60.00,Sunday
1101,11506030.365436297
2,1, 1, 1, 0, 7, 0.00,60.00,Sunday
1101,11148469.121967876
2,1, 1, 1, 0, 8, 0.00,60.00,Sunday
1101,10470845.978052448
2,1, 1, 1, 0, 9, 0.00,60.00,Sunday
1101,7045236.412499217
2,1, 1, 1, 0,10, 0.00,60.00,Sunday
1101,6483597.399220727
2,1, 1, 1, 0,11, 0.00,60.00,Sunday
1101,4376658.821490332
2,1, 1, 1, 0,12, 0.00,60.00,Sunday
1101,4904271.447362787
2,1, 1, 1, 0,13, 0.00,60.00,Sunday
1101,4690921.664798571
2,1, 1, 1, 0,14, 0.00,60.00,Sunday
1101,4579066.749517047
2,1, 1, 1, 0,15, 0.00,60.00,Sunday
1101,5690436.905652517
2,1, 1, 1, 0,16, 0.00,60.00,Sunday
1101,5905398.894642683
2,1, 1, 1, 0,17, 0.00,60.00,Sunday
1101,5892446.637768653
2,1, 1, 1, 0,18, 0.00,60.00,Sunday
1101,7283226.646853629
2,1, 1, 1, 0,19, 0.00,60.00,Sunday
1101,7861305.767730158
2,1, 1, 1, 0,20, 0.00,60.00,Sunday
1101,10684386.558877602
2,1, 1, 1, 0,21, 0.00,60.00,Sunday
1101,12650495.711120265
2,1, 1, 1, 0,22, 0.00,60.00,Sunday
1101,13301970.51284203
2,1, 1, 1, 0,23, 0.00,60.00,Sunday
1101,16142838.066134173
2,1, 1, 1, 0,24, 0.00,60.00,Sunday
1101,18577694.378732935
2,2, 1, 2, 0, 1, 0.00,60.00,Monday
1101,17414259.664150782
2,2, 1, 2, 0, 2, 0.00,60.00,Monday
1101,17745843.412618607
2,2, 1, 2, 0, 3, 0.00,60.00,Monday
1101,18748832.781075392
2,2, 1, 2, 0, 4, 0.00,60.00,Monday
1101,19976953.655382853
2,2, 1, 2, 0, 5, 0.00,60.00,Monday
1101,21967742.23177466
2,2, 1, 2, 0, 6, 0.00,60.00,Monday
1101,24491878.052070852
2,2, 1, 2, 0, 7, 0.00,60.00,Monday
1101,25709921.296891734
2,2, 1, 2, 0, 8, 0.00,60.00,Monday
1101,24517217.974383175
2,2, 1, 2, 0, 9, 0.00,60.00,Monday
1101,20586916.303602222
2,2, 1, 2, 0,10, 0.00,60.00,Monday
1101,17396854.510627706
2,2, 1, 2, 0,11, 0.00,60.00,Monday
1101,14151243.785420222
2,2, 1, 2, 0,12, 0.00,60.00,Monday
1101,9753837.560846107
2,2, 1, 2, 0,13, 0.00,60.00,Monday
1101,8622178.178163376
2,2, 1, 2, 0,14, 0.00,60.00,Monday
1101,8853820.316215962
2,2, 1, 2, 0,15, 0.00,60.00,Monday
1101,6938984.759161802
2,2, 1, 2, 0,16, 0.00,60.00,Monday
1101,11982641.281456804
2,2, 1, 2, 0,17, 0.00,60.00,Monday
1101,13185254.066240747
2,2, 1, 2, 0,18, 0.00,60.00,Monday
1101,14070675.702690022
2,2, 1, 2, 0,19, 0.00,60.00,Monday
1101,15310882.82047138
2,2, 1, 2, 0,20, 0.00,60.00,Monday
1101,18555297.06857913
2,2, 1, 2, 0,21, 0.00,60.00,Monday
1101,18928415.768252652
2,2, 1, 2, 0,22, 0.00,60.00,Monday
1101,18325258.38186046
2,2, 1, 2, 0,23, 0.00,60.00,Monday
1101,20385167.26088013
2,2, 1, 2, 0,24, 0.00,60.00,Monday
1101,22188324.095639307
End of Data
 Number of Records Written=          96
