Program Version,EnergyPlus, Version 9.6.0-f420c06a69, YMD=2022.04.08 17:05
1,5,Environment Title[],Latitude[deg],Longitude[deg],Time Zone[],Elevation[m]
2,8,Day of Simulation[],Month[],Day of Month[],DST Indicator[1=yes 0=no],Hour[],StartMinute[],EndMinute[],DayType
3,5,Cumulative Day of Simulation[],Month[],Day of Month[],DST Indicator[1=yes 0=no],DayType  ! When Daily Report Variables Requested
4,2,Cumulative Days of Simulation[],Month[]  ! When Monthly Report Variables Requested
5,1,Cumulative Days of Simulation[] ! When Run Period Report Variables Requested
6,1,Calendar Year of Simulation[] ! When Annual Report Variables Requested
7,1,Environment,Site Outdoor Air Drybulb Temperature [C] !Hourly
646,1,LIVING_UNIT1,Zone Mean Air Temperature [C] !Hourly
647,1,ATTIC_UNIT1,Zone Mean Air Temperature [C] !Hourly
648,1,CRAWLSPACE_UNIT1,Zone Mean Air Temperature [C] !Hourly
808,1,LIVING_UNIT1,Zone Thermostat Heating Setpoint Temperature [C] !Hourly
871,1,ATTIC_UNIT1,Zone Thermostat Heating Setpoint Temperature [C] !Hourly
934,1,CRAWLSPACE_UNIT1,Zone Thermostat Heating Setpoint Temperature [C] !Hourly
1135,1,LIVING_UNIT1,Zone Heating Setpoint Not Met While Occupied Time [hr] !Hourly
1136,1,ATTIC_UNIT1,Zone Heating Setpoint Not Met While Occupied Time [hr] !Hourly
1137,1,CRAWLSPACE_UNIT1,Zone Heating Setpoint Not Met While Occupied Time [hr] !Hourly
553,1,Heating:Electricity [J] !Hourly
End of Data Dictionary
1,MONTHLY,  39.74,-105.18,  -7.00,1829.00
2,1, 1, 1, 0, 1, 0.00,60.00,Sunday
7,-4.5
646,21.00002908898249
647,-2.6795934397858874
648,5.026963139784558
1135,0.0
1136,0.0
1137,0.0
808,21.000000000000014
871,0.0
934,0.0
553,10538398.138261188
2,1, 1, 1, 0, 2, 0.00,60.00,Sunday
7,-3.0
646,21.00022789137553
647,-1.0209891878509045
648,9.996139643323168
1135,0.0
1136,0.0
1137,0.0
808,21.0
871,0.0
934,0.0
553,8488884.049113058
2,1, 1, 1, 0, 3, 0.00,60.00,Sunday
7,-3.625
646,21.00032280153682
647,-0.954904503783198
648,9.079850762971795
1135,0.0
1136,0.0
1137,0.0
808,21.0
871,0.0
934,0.0
553,8939150.971565148
2,1, 1, 1, 0, 4, 0.00,60.00,Sunday
7,-2.75
646,21.000337331824937
647,-0.6206602935316031
648,9.959367185086816
1135,0.0
1136,0.0
1137,0.0
808,21.0
871,0.0
934,0.0
553,8452739.843661733
2,1, 1, 1, 0, 5, 0.00,60.00,Sunday
7,-2.0
646,21.0002068395291
647,-0.408881530222602
648,8.304638313199066
1135,0.0
1136,0.0
1137,0.0
808,21.0
871,0.0
934,0.0
553,8632992.18406017
2,1, 1, 1, 0, 6, 0.00,60.00,Sunday
7,-1.375
646,21.00006929728469
647,0.8660053915222135
648,9.957451318837613
1135,0.0
1136,0.0
1137,0.0
808,21.000000000000007
871,0.0
934,0.0
553,8093306.723597554
2,1, 1, 1, 0, 7, 0.00,60.00,Sunday
7,-1.0
646,21.000216673092943
647,1.349455057749578
648,11.114464487514947
1135,0.0
1136,0.0
1137,0.0
808,21.0
871,0.0
934,0.0
553,9854365.415248428
2,1, 1, 1, 0, 8, 0.00,60.00,Sunday
7,-1.0
646,21.00069068311839
647,1.081858042296933
648,9.743315081638098
1135,0.0
1136,0.0
1137,0.0
808,21.0
871,0.0
934,0.0
553,10231370.199538847
2,1, 1, 1, 0, 9, 0.00,60.00,Sunday
7,-0.375
646,21.0000699613819
647,2.256568830581723
648,9.619390701447896
1135,0.0
1136,0.0
1137,0.0
808,21.0
871,0.0
934,0.0
553,6512286.823521778
2,1, 1, 1, 0,10, 0.00,60.00,Sunday
7,1.25
646,21.000816467080092
647,3.3290476287843913
648,9.953189350118311
1135,0.0
1136,0.0
1137,0.0
808,21.0
871,0.0
934,0.0
553,5145433.976385494
2,1, 1, 1, 0,11, 0.00,60.00,Sunday
7,2.0
646,20.99777147926509
647,5.170838909780956
648,8.816508931006751
1135,0.0
1136,0.0
1137,0.0
808,21.0
871,0.0
934,0.0
553,4811603.299581811
2,1, 1, 1, 0,12, 0.00,60.00,Sunday
7,1.375
646,21.000009740898527
647,4.325867707947639
648,6.997016845866983
1135,0.0
1136,0.0
1137,0.0
808,21.0
871,0.0
934,0.0
553,5198527.774035447
2,1, 1, 1, 0,13, 0.00,60.00,Sunday
7,2.25
646,21.005201439695572
647,4.037779110643206
648,6.716686137341483
1135,0.0
1136,0.0
1137,0.0
808,21.0
871,0.0
934,0.0
553,3738678.814697491
2,1, 1, 1, 0,14, 0.00,60.00,Sunday
7,2.375
646,20.998259180493633
647,3.907100828984908
648,6.707922399719417
1135,0.0
1136,0.0
1137,0.0
808,21.0
871,0.0
934,0.0
553,3803991.6289286194
2,1, 1, 1, 0,15, 0.00,60.00,Sunday
7,1.375
646,20.998967200999314
647,2.8271888647739916
648,5.515162076085452
1135,0.0
1136,0.0
1137,0.0
808,21.0
871,0.0
934,0.0
553,6016233.996053791
2,1, 1, 1, 0,16, 0.00,60.00,Sunday
7,1.0
646,21.00080323053367
647,2.365069757600895
648,6.111236670223551
1135,0.0
1136,0.0
1137,0.0
808,21.0
871,0.0
934,0.0
553,5235895.263297766
2,1, 1, 1, 0,17, 0.00,60.00,Sunday
7,0.375
646,20.997628583124992
647,1.7972358149804701
648,6.412291864966345
1135,0.0
1136,0.0
1137,0.0
808,21.0
871,0.0
934,0.0
553,4887591.760409339
2,1, 1, 1, 0,18, 0.00,60.00,Sunday
7,-0.625
646,20.99879395274118
647,0.7925522090746561
648,5.684690975610112
1135,0.0
1136,0.0
1137,0.0
808,21.0
871,0.0
934,0.0
553,6196464.192929567
2,1, 1, 1, 0,19, 0.00,60.00,Sunday
7,-1.625
646,21.000157562497783
647,0.046968428315855806
648,5.133610538284255
1135,0.0
1136,0.0
1137,0.0
808,21.0
871,0.0
934,0.0
553,7583625.1033282
2,1, 1, 1, 0,20, 0.00,60.00,Sunday
7,-3.25
646,21.000199419746327
647,-1.7250731441201201
648,2.816761396814496
1135,0.0
1136,0.0
1137,0.0
808,21.0
871,0.0
934,0.0
553,8606508.30571008
2,1, 1, 1, 0,21, 0.00,60.00,Sunday
7,-4.625
646,21.00031848877154
647,-2.9497186345522888
648,1.8942744765742527
1135,0.0
1136,0.0
1137,0.0
808,21.0
871,0.0
934,0.0
553,8758217.033169549
2,1, 1, 1, 0,22, 0.00,60.00,Sunday
7,-5.625
646,21.00047369470808
647,-3.259468567360135
648,3.7820560885816574
1135,0.0
1136,0.0
1137,0.0
808,21.0
871,0.0
934,0.0
553,11431439.295255173
2,1, 1, 1, 0,23, 0.00,60.00,Sunday
7,-6.625
646,20.999919646112783
647,-4.5502209706446735
648,1.3859423661326329
1135,0.0
1136,0.0
1137,0.0
808,21.0
871,0.0
934,0.0
553,14539285.974150868
2,1, 1, 1, 0,24, 0.00,60.00,Sunday
7,-7.0
646,20.9997440381426
647,-5.391690299754508
648,-0.9151034036644639
1135,0.0
1136,0.0
1137,0.0
808,21.0
871,0.0
934,0.0
553,14314838.074311998
End of Data
 Number of Records Written=         264
