Program Version,EnergyPlus, Version 9.6.0-f420c06a69, YMD=2022.04.08 12:41
1,5,Environment Title[],Latitude[deg],Longitude[deg],Time Zone[],Elevation[m]
2,8,Day of Simulation[],Month[],Day of Month[],DST Indicator[1=yes 0=no],Hour[],StartMinute[],EndMinute[],DayType
3,5,Cumulative Day of Simulation[],Month[],Day of Month[],DST Indicator[1=yes 0=no],DayType  ! When Daily Report Variables Requested
4,2,Cumulative Days of Simulation[],Month[]  ! When Monthly Report Variables Requested
5,1,Cumulative Days of Simulation[] ! When Run Period Report Variables Requested
6,1,Calendar Year of Simulation[] ! When Annual Report Variables Requested
7,1,Environment,Site Outdoor Air Drybulb Temperature [C] !Hourly
837,1,GARAGE ZONE,Zone Mean Air Temperature [C] !Hourly
838,1,LIVING ZONE,Zone Mean Air Temperature [C] !Hourly
839,1,UNFINISHED ATTIC ZONE,Zone Mean Air Temperature [C] !Hourly
974,1,GARAGE ZONE,Zone Thermostat Heating Setpoint Temperature [C] !Hourly
1037,1,LIVING ZONE,Zone Thermostat Heating Setpoint Temperature [C] !Hourly
1100,1,UNFINISHED ATTIC ZONE,Zone Thermostat Heating Setpoint Temperature [C] !Hourly
1778,1,Heating:NaturalGas [J] !Hourly
End of Data Dictionary
1,RUN PERIOD 1,  39.74,-105.18,  -7.00,1829.00
2,1, 1, 1, 0, 1, 0.00,60.00,Sunday
7,-4.5
837,11.116592687881864
838,20.999802672253203
839,-5.618232151827111
974,0.0
1037,21.0
1100,0.0
1778,100945130.08341594
2,1, 1, 1, 0, 2, 0.00,60.00,Sunday
7,-3.0
837,11.104297715668036
838,20.99819412095666
839,-5.253882646537441
974,0.0
1037,21.0
1100,0.0
1778,93770350.85916275
2,1, 1, 1, 0, 3, 0.00,60.00,Sunday
7,-3.625
837,10.639954106141989
838,20.99798803148186
839,-5.11479054760096
974,0.0
1037,21.0
1100,0.0
1778,97635490.5796091
2,1, 1, 1, 0, 4, 0.00,60.00,Sunday
7,-2.75
837,10.444543091311868
838,21.000330747287638
839,-4.797472877519153
974,0.0
1037,21.0
1100,0.0
1778,93924896.90836582
2,1, 1, 1, 0, 5, 0.00,60.00,Sunday
7,-2.0
837,10.226896867181775
838,14.116158699758664
839,-4.035631747542153
974,0.0
1037,12.0
1100,0.0
1778,0.0
2,1, 1, 1, 0, 6, 0.00,60.00,Sunday
7,-1.375
837,10.002697294544223
838,20.947003078925604
839,-3.275681698475724
974,0.0
1037,21.0
1100,0.0
1778,109610715.17539231
2,1, 1, 1, 0, 7, 0.00,60.00,Sunday
7,-1.0
837,9.908949709805075
838,20.997426194547973
839,-2.8592249485350965
974,0.0
1037,21.0
1100,0.0
1778,94658045.72254646
2,1, 1, 1, 0, 8, 0.00,60.00,Sunday
7,-1.0
837,9.792529570334814
838,21.000586915111477
839,-2.292925135432928
974,0.0
1037,21.0
1100,0.0
1778,90819720.28853893
2,1, 1, 1, 0, 9, 0.00,60.00,Sunday
7,-0.375
837,9.849780037950838
838,20.999590814702238
839,-0.025086217005346134
974,0.0
1037,21.0
1100,0.0
1778,83452081.96046028
2,1, 1, 1, 0,10, 0.00,60.00,Sunday
7,1.25
837,10.202050924707809
838,21.000346364688916
839,2.609918392905863
974,0.0
1037,21.0
1100,0.0
1778,76688489.62547433
2,1, 1, 1, 0,11, 0.00,60.00,Sunday
7,2.0
837,10.455261021418476
838,20.999857431220498
839,5.133187847429189
974,0.0
1037,21.0
1100,0.0
1778,72353399.28733861
2,1, 1, 1, 0,12, 0.00,60.00,Sunday
7,1.375
837,10.320625888307477
838,21.001266297218702
839,7.203444796797914
974,0.0
1037,21.0
1100,0.0
1778,80088399.6340976
2,1, 1, 1, 0,13, 0.00,60.00,Sunday
7,2.25
837,10.573426097752133
838,21.000146393534408
839,7.262700659435204
974,0.0
1037,21.0
1100,0.0
1778,76885786.79896557
2,1, 1, 1, 0,14, 0.00,60.00,Sunday
7,2.375
837,10.703240933334392
838,21.000471889206732
839,6.616823685619551
974,0.0
1037,21.0
1100,0.0
1778,76495197.39382434
2,1, 1, 1, 0,15, 0.00,60.00,Sunday
7,1.375
837,10.413676311173155
838,20.999957767787485
839,4.888699635908093
974,0.0
1037,21.0
1100,0.0
1778,81799283.97377008
2,1, 1, 1, 0,16, 0.00,60.00,Sunday
7,1.0
837,10.328476744109636
838,21.001043215402827
839,3.48078021315556
974,0.0
1037,21.0
1100,0.0
1778,75726449.84914592
2,1, 1, 1, 0,17, 0.00,60.00,Sunday
7,0.375
837,10.186951359763281
838,20.998762852561004
839,2.5300030147382264
974,0.0
1037,21.0
1100,0.0
1778,76302160.35357207
2,1, 1, 1, 0,18, 0.00,60.00,Sunday
7,-0.625
837,9.807521469079692
838,20.99948691448032
839,1.1780643354131586
974,0.0
1037,21.0
1100,0.0
1778,84672697.73026182
2,1, 1, 1, 0,19, 0.00,60.00,Sunday
7,-1.625
837,9.439173520302052
838,20.999667606724692
839,-0.1264671503780352
974,0.0
1037,21.0
1100,0.0
1778,90614634.07172307
2,1, 1, 1, 0,20, 0.00,60.00,Sunday
7,-3.25
837,8.667351554232942
838,21.001035013107334
839,-1.7007147056789935
974,0.0
1037,21.0
1100,0.0
1778,106242413.72392604
2,1, 1, 1, 0,21, 0.00,60.00,Sunday
7,-4.625
837,8.139434558439355
838,20.99969909732611
839,-3.0502245259399894
974,0.0
1037,21.0
1100,0.0
1778,110314428.8205519
2,1, 1, 1, 0,22, 0.00,60.00,Sunday
7,-5.625
837,7.982318142534625
838,21.000572046601054
839,-4.026390325906366
974,0.0
1037,21.0
1100,0.0
1778,108940525.2595555
2,1, 1, 1, 0,23, 0.00,60.00,Sunday
7,-6.625
837,7.358307611129383
838,21.00019889325617
839,-5.190400074248791
974,0.0
1037,21.0
1100,0.0
1778,119982667.03288627
2,1, 1, 1, 0,24, 0.00,60.00,Sunday
7,-7.0
837,6.744300800642734
838,21.001820397859234
839,-6.014658089746754
974,0.0
1037,21.0
1100,0.0
1778,127943796.155659
End of Data
 Number of Records Written=         192
