Program Version,EnergyPlus, Version 9.6.0-f420c06a69, YMD=2022.04.15 16:33
1,5,Environment Title[],Latitude[deg],Longitude[deg],Time Zone[],Elevation[m]
2,8,Day of Simulation[],Month[],Day of Month[],DST Indicator[1=yes 0=no],Hour[],StartMinute[],EndMinute[],DayType
3,5,Cumulative Day of Simulation[],Month[],Day of Month[],DST Indicator[1=yes 0=no],DayType  ! When Daily Report Variables Requested
4,2,Cumulative Days of Simulation[],Month[]  ! When Monthly Report Variables Requested
5,1,Cumulative Days of Simulation[] ! When Run Period Report Variables Requested
6,1,Calendar Year of Simulation[] ! When Annual Report Variables Requested
7,1,Environment,Site Outdoor Air Drybulb Temperature [C] !Hourly
3410,1,CRAWLSPACE,Zone Mean Air Temperature [C] !Hourly
3411,1,BREEZEWAY,Zone Mean Air Temperature [C] !Hourly
3412,1,LIVING_UNIT1_FRONTROW_BOTTOMFLOOR,Zone Mean Air Temperature [C] !Hourly
3413,1,LIVING_UNIT2_FRONTROW_BOTTOMFLOOR,Zone Mean Air Temperature [C] !Hourly
3414,1,LIVING_UNIT3_FRONTROW_BOTTOMFLOOR,Zone Mean Air Temperature [C] !Hourly
3415,1,LIVING_UNIT1_BACKROW_BOTTOMFLOOR,Zone Mean Air Temperature [C] !Hourly
3416,1,LIVING_UNIT2_BACKROW_BOTTOMFLOOR,Zone Mean Air Temperature [C] !Hourly
3417,1,LIVING_UNIT3_BACKROW_BOTTOMFLOOR,Zone Mean Air Temperature [C] !Hourly
3418,1,LIVING_UNIT1_FRONTROW_MIDDLEFLOOR,Zone Mean Air Temperature [C] !Hourly
3419,1,LIVING_UNIT2_FRONTROW_MIDDLEFLOOR,Zone Mean Air Temperature [C] !Hourly
3420,1,LIVING_UNIT3_FRONTROW_MIDDLEFLOOR,Zone Mean Air Temperature [C] !Hourly
3421,1,LIVING_UNIT1_BACKROW_MIDDLEFLOOR,Zone Mean Air Temperature [C] !Hourly
3422,1,LIVING_UNIT2_BACKROW_MIDDLEFLOOR,Zone Mean Air Temperature [C] !Hourly
3423,1,LIVING_UNIT3_BACKROW_MIDDLEFLOOR,Zone Mean Air Temperature [C] !Hourly
3424,1,ATTIC,Zone Mean Air Temperature [C] !Hourly
3425,1,LIVING_UNIT3_BACKROW_TOPFLOOR,Zone Mean Air Temperature [C] !Hourly
3426,1,LIVING_UNIT3_FRONTROW_TOPFLOOR,Zone Mean Air Temperature [C] !Hourly
3427,1,LIVING_UNIT1_FRONTROW_TOPFLOOR,Zone Mean Air Temperature [C] !Hourly
3428,1,LIVING_UNIT2_BACKROW_TOPFLOOR,Zone Mean Air Temperature [C] !Hourly
3429,1,LIVING_UNIT2_FRONTROW_TOPFLOOR,Zone Mean Air Temperature [C] !Hourly
3430,1,LIVING_UNIT1_BACKROW_TOPFLOOR,Zone Mean Air Temperature [C] !Hourly
4015,1,CRAWLSPACE,Zone Thermostat Heating Setpoint Temperature [C] !Hourly
4078,1,BREEZEWAY,Zone Thermostat Heating Setpoint Temperature [C] !Hourly
4141,1,LIVING_UNIT1_FRONTROW_BOTTOMFLOOR,Zone Thermostat Heating Setpoint Temperature [C] !Hourly
4204,1,LIVING_UNIT2_FRONTROW_BOTTOMFLOOR,Zone Thermostat Heating Setpoint Temperature [C] !Hourly
4267,1,LIVING_UNIT3_FRONTROW_BOTTOMFLOOR,Zone Thermostat Heating Setpoint Temperature [C] !Hourly
4330,1,LIVING_UNIT1_BACKROW_BOTTOMFLOOR,Zone Thermostat Heating Setpoint Temperature [C] !Hourly
4393,1,LIVING_UNIT2_BACKROW_BOTTOMFLOOR,Zone Thermostat Heating Setpoint Temperature [C] !Hourly
4456,1,LIVING_UNIT3_BACKROW_BOTTOMFLOOR,Zone Thermostat Heating Setpoint Temperature [C] !Hourly
4519,1,LIVING_UNIT1_FRONTROW_MIDDLEFLOOR,Zone Thermostat Heating Setpoint Temperature [C] !Hourly
4582,1,LIVING_UNIT2_FRONTROW_MIDDLEFLOOR,Zone Thermostat Heating Setpoint Temperature [C] !Hourly
4645,1,LIVING_UNIT3_FRONTROW_MIDDLEFLOOR,Zone Thermostat Heating Setpoint Temperature [C] !Hourly
4708,1,LIVING_UNIT1_BACKROW_MIDDLEFLOOR,Zone Thermostat Heating Setpoint Temperature [C] !Hourly
4771,1,LIVING_UNIT2_BACKROW_MIDDLEFLOOR,Zone Thermostat Heating Setpoint Temperature [C] !Hourly
4834,1,LIVING_UNIT3_BACKROW_MIDDLEFLOOR,Zone Thermostat Heating Setpoint Temperature [C] !Hourly
4897,1,ATTIC,Zone Thermostat Heating Setpoint Temperature [C] !Hourly
4960,1,LIVING_UNIT3_BACKROW_TOPFLOOR,Zone Thermostat Heating Setpoint Temperature [C] !Hourly
5023,1,LIVING_UNIT3_FRONTROW_TOPFLOOR,Zone Thermostat Heating Setpoint Temperature [C] !Hourly
5086,1,LIVING_UNIT1_FRONTROW_TOPFLOOR,Zone Thermostat Heating Setpoint Temperature [C] !Hourly
5149,1,LIVING_UNIT2_BACKROW_TOPFLOOR,Zone Thermostat Heating Setpoint Temperature [C] !Hourly
5212,1,LIVING_UNIT2_FRONTROW_TOPFLOOR,Zone Thermostat Heating Setpoint Temperature [C] !Hourly
5275,1,LIVING_UNIT1_BACKROW_TOPFLOOR,Zone Thermostat Heating Setpoint Temperature [C] !Hourly
5751,1,Heating:Electricity [J] !Hourly
End of Data Dictionary
1,DENVER-AURORA-BUCKLEY.AFB_CO_USA ANN HTG 99.6% CONDNS DB,  39.74,-105.18,  -7.00,1829.00
2,1,12,21, 0, 1, 0.00,60.00,WinterDesignDay
7,-17.900000000000002
3410,-7.696092376680386
3411,-18.175951487634443
3412,21.49999998787541
3413,21.49999999752744
3414,21.49999999234683
3415,21.499999988347373
3416,21.49999999753798
3417,21.499999992729276
3418,21.499999990393466
3419,21.49997409492097
3420,21.499979830174805
3421,21.499999990785273
3422,21.499971257445438
3423,21.499979353827538
3424,-19.344652464924113
3425,21.499999992488878
3426,21.499999992048284
3427,21.499999987373325
3428,21.49999999691272
3429,21.49999999703553
3430,21.499999987432158
4015,0.0
4078,0.0
4141,21.5
4204,21.5
4267,21.5
4330,21.5
4393,21.5
4456,21.5
4519,21.5
4582,21.5
4645,21.5
4708,21.5
4771,21.5
4834,21.5
4897,0.0
4960,21.5
5023,21.5
5086,21.5
5149,21.5
5212,21.5
5275,21.5
5751,145385103.87593102
2,1,12,21, 0, 2, 0.00,60.00,WinterDesignDay
7,-17.900000000000002
3410,-7.6955299857593475
3411,-18.181072646829755
3412,21.499999999999925
3413,21.5
3414,21.499999999999986
3415,21.499999999999932
3416,21.5
3417,21.49999999999999
3418,21.499999999999943
3419,21.49999999999386
3420,21.49999999996075
3421,21.499999999999954
3422,21.49999999999355
3423,21.49999999996614
3424,-19.34420875608058
3425,21.499999999999986
3426,21.499999999999986
3427,21.49999999999991
3428,21.5
3429,21.5
3430,21.499999999999915
4015,0.0
4078,0.0
4141,21.5
4204,21.5
4267,21.5
4330,21.5
4393,21.5
4456,21.5
4519,21.5
4582,21.5
4645,21.5
4708,21.5
4771,21.5
4834,21.5
4897,0.0
4960,21.5
5023,21.5
5086,21.5
5149,21.5
5212,21.5
5275,21.5
5751,146723159.98315448
2,1,12,21, 0, 3, 0.00,60.00,WinterDesignDay
7,-17.900000000000002
3410,-7.695416475553693
3411,-18.185915835186513
3412,21.5
3413,21.5
3414,21.5
3415,21.5
3416,21.5
3417,21.5
3418,21.5
3419,21.5
3420,21.5
3421,21.5
3422,21.5
3423,21.5
3424,-19.343799530244368
3425,21.5
3426,21.5
3427,21.5
3428,21.5
3429,21.5
3430,21.5
4015,0.0
4078,0.0
4141,21.5
4204,21.5
4267,21.5
4330,21.5
4393,21.5
4456,21.5
4519,21.5
4582,21.5
4645,21.5
4708,21.5
4771,21.5
4834,21.5
4897,0.0
4960,21.5
5023,21.5
5086,21.5
5149,21.5
5212,21.5
5275,21.5
5751,147620026.3245796
2,1,12,21, 0, 4, 0.00,60.00,WinterDesignDay
7,-17.900000000000002
3410,-7.695601477410631
3411,-18.190518279324067
3412,21.5
3413,21.5
3414,21.5
3415,21.5
3416,21.5
3417,21.499999999999996
3418,21.5
3419,21.5
3420,21.5
3421,21.5
3422,21.5
3423,21.5
3424,-19.343456753491566
3425,21.5
3426,21.5
3427,21.5
3428,21.5
3429,21.5
3430,21.5
4015,0.0
4078,0.0
4141,21.5
4204,21.5
4267,21.5
4330,21.5
4393,21.5
4456,21.5
4519,21.5
4582,21.5
4645,21.5
4708,21.5
4771,21.5
4834,21.5
4897,0.0
4960,21.5
5023,21.5
5086,21.5
5149,21.5
5212,21.5
5275,21.5
5751,148283645.6324122
2,1,12,21, 0, 5, 0.00,60.00,WinterDesignDay
7,-17.900000000000002
3410,-7.695895876455066
3411,-18.19489009413924
3412,21.5
3413,21.5
3414,21.5
3415,21.5
3416,21.5
3417,21.5
3418,21.5
3419,21.5
3420,21.5
3421,21.5
3422,21.5
3423,21.5
3424,-19.343219967060264
3425,21.5
3426,21.5
3427,21.5
3428,21.5
3429,21.5
3430,21.5
4015,0.0
4078,0.0
4141,21.5
4204,21.5
4267,21.5
4330,21.5
4393,21.5
4456,21.5
4519,21.5
4582,21.5
4645,21.5
4708,21.5
4771,21.5
4834,21.5
4897,0.0
4960,21.5
5023,21.5
5086,21.5
5149,21.5
5212,21.5
5275,21.5
5751,148058044.1809166
2,1,12,21, 0, 6, 0.00,60.00,WinterDesignDay
7,-17.900000000000002
3410,-7.696302216494129
3411,-18.199056378630235
3412,21.5
3413,21.5
3414,21.5
3415,21.5
3416,21.5
3417,21.5
3418,21.5
3419,21.5
3420,21.5
3421,21.5
3422,21.5
3423,21.5
3424,-19.343042871039305
3425,21.5
3426,21.5
3427,21.5
3428,21.5
3429,21.5
3430,21.5
4015,0.0
4078,0.0
4141,21.5
4204,21.5
4267,21.5
4330,21.5
4393,21.5
4456,21.5
4519,21.5
4582,21.5
4645,21.5
4708,21.5
4771,21.5
4834,21.5
4897,0.0
4960,21.5
5023,21.5
5086,21.5
5149,21.5
5212,21.5
5275,21.5
5751,146383613.7218245
2,1,12,21, 0, 7, 0.00,60.00,WinterDesignDay
7,-17.900000000000002
3410,-7.696586150715859
3411,-18.20306018529153
3412,21.46296843783496
3413,21.443827481458353
3414,21.45441847241923
3415,21.46210012649695
3416,21.443768527053745
3417,21.4536266324135
3418,21.459800374100436
3419,21.43972567012607
3420,21.451838392240607
3421,21.45890659043072
3422,21.439506607183016
3423,21.45085961627662
3424,-19.34293695722482
3425,21.453525019520118
3426,21.454422149256526
3427,21.463249566074307
3428,21.44556943602956
3429,21.445120322452293
3430,21.463127659681163
4015,0.0
4078,0.0
4141,21.5
4204,21.5
4267,21.5
4330,21.5
4393,21.5
4456,21.5
4519,21.5
4582,21.5
4645,21.5
4708,21.5
4771,21.5
4834,21.5
4897,0.0
4960,21.5
5023,21.5
5086,21.5
5149,21.5
5212,21.5
5275,21.5
5751,147410146.64927542
2,1,12,21, 0, 8, 0.00,60.00,WinterDesignDay
7,-17.900000000000002
3410,-7.6966490761567785
3411,-18.20682555570767
3412,20.920497549146578
3413,20.59511852192726
3414,20.787198581507358
3415,20.90686702693206
3416,20.59413787090848
3417,20.774950815678704
3418,20.86817186682249
3419,20.488296910201484
3420,20.743293781438513
3421,20.854089941332393
3422,20.484456215385357
3423,20.728017510076953
3424,-19.342883619184004
3425,20.81638360456193
3426,20.82934364486182
3427,20.95800352150089
3428,20.67115593717159
3429,20.664452352164222
3430,20.956217576323066
4015,0.0
4078,0.0
4141,21.5
4204,21.5
4267,21.5
4330,21.5
4393,21.5
4456,21.5
4519,21.5
4582,21.5
4645,21.5
4708,21.5
4771,21.5
4834,21.5
4897,0.0
4960,21.5
5023,21.5
5086,21.5
5149,21.5
5212,21.5
5275,21.5
5751,161452967.01079863
2,1,12,21, 0, 9, 0.00,60.00,WinterDesignDay
7,-17.900000000000002
3410,-7.696677605965018
3411,-18.210838026880783
3412,20.678500472274802
3413,20.270067844836067
3414,20.504456351462604
3415,20.660486799533263
3416,20.268530007106804
3417,20.488530377973873
3418,20.649360696925232
3419,20.175929345730133
3420,20.488363780368914
3421,20.631321223691984
3422,20.17100766715839
3423,20.46902213976713
3424,-19.342848467490153
3425,20.555231803402055
3426,20.57211770072145
3427,20.74144237215957
3428,20.3801139490305
3429,20.371787261994754
3430,20.73902687386499
4015,0.0
4078,0.0
4141,21.5
4204,21.5
4267,21.5
4330,21.5
4393,21.5
4456,21.5
4519,21.5
4582,21.5
4645,21.5
4708,21.5
4771,21.5
4834,21.5
4897,0.0
4960,21.5
5023,21.5
5086,21.5
5149,21.5
5212,21.5
5275,21.5
5751,161452967.01079863
2,1,12,21, 0,10, 0.00,60.00,WinterDesignDay
7,-17.900000000000002
3410,-7.697353434113654
3411,-18.21433962432394
3412,21.37740776464045
3413,21.040096653079008
3414,21.213082337343607
3415,21.36760724294402
3416,21.0379434831171
3417,21.196102431674486
3418,21.391931022095836
3419,21.06823619279537
3420,21.257904464394986
3421,21.385413331300033
3422,21.06352144002987
3423,21.23786538191961
3424,-19.342825345973562
3425,21.214666235154517
3426,21.232850474650444
3427,21.400570808397664
3428,21.098272791805105
3429,21.090209763979306
3430,21.399339686257168
4015,0.0
4078,0.0
4141,21.5
4204,21.5
4267,21.5
4330,21.5
4393,21.5
4456,21.5
4519,21.5
4582,21.5
4645,21.5
4708,21.5
4771,21.5
4834,21.5
4897,0.0
4960,21.5
5023,21.5
5086,21.5
5149,21.5
5212,21.5
5275,21.5
5751,161039091.32180834
2,1,12,21, 0,11, 0.00,60.00,WinterDesignDay
7,-17.900000000000002
3410,-7.698775115508018
3411,-18.218192474266484
3412,21.49999696463208
3413,21.263150367814347
3414,21.45154834666923
3415,21.499995679431283
3416,21.260311076123116
3417,21.432200500509563
3418,21.49999855946646
3419,21.27716701486008
3420,21.46992436187661
3421,21.499998479937137
3422,21.2718421345821
3423,21.448792230602937
3424,-19.34288401570856
3425,21.414144273099634
3426,21.43525843154373
3427,21.499998544522242
3428,21.287852865179072
3429,21.27900990599989
3430,21.499998387701144
4015,0.0
4078,0.0
4141,21.5
4204,21.5
4267,21.5
4330,21.5
4393,21.5
4456,21.5
4519,21.5
4582,21.5
4645,21.5
4708,21.5
4771,21.5
4834,21.5
4897,0.0
4960,21.5
5023,21.5
5086,21.5
5149,21.5
5212,21.5
5275,21.5
5751,159460287.80932528
2,1,12,21, 0,12, 0.00,60.00,WinterDesignDay
7,-17.900000000000002
3410,-7.699958877444588
3411,-18.22155054451878
3412,20.86422356291341
3413,20.463112915946084
3414,20.73371044339034
3415,20.852229047296067
3416,20.45982875840069
3417,20.716834036133566
3418,20.819036709670282
3419,20.375271081090634
3420,20.69522082368725
3421,20.806805174885014
3422,20.36885546893012
3423,20.676113905298422
3424,-19.343096751344977
3425,20.741392246482352
3426,20.765770776900684
3427,20.901676503996697
3428,20.536562370922127
3429,20.526288318253947
3430,20.899889050450454
4015,0.0
4078,0.0
4141,21.5
4204,21.5
4267,21.5
4330,21.5
4393,21.5
4456,21.5
4519,21.5
4582,21.5
4645,21.5
4708,21.5
4771,21.5
4834,21.5
4897,0.0
4960,21.5
5023,21.5
5086,21.5
5149,21.5
5212,21.5
5275,21.5
5751,161005356.16270274
2,1,12,21, 0,13, 0.00,60.00,WinterDesignDay
7,-17.900000000000002
3410,-7.700515758304905
3411,-18.225080691282724
3412,20.517218866619356
3413,20.0001223306854
3414,20.310274013116143
3415,20.497517775553213
3416,19.99638926926029
3417,20.28696499186214
3418,20.490049079617233
3419,19.893639640620062
3420,20.295072947639877
3421,20.4705259174082
3422,19.88672840230223
3423,20.267448618501597
3424,-19.343418171764565
3425,20.36869245474077
3426,20.395327612149117
3427,20.60280713657203
3428,20.132420640386098
3429,20.12206736080168
3430,20.59989807727432
4015,0.0
4078,0.0
4141,21.5
4204,21.5
4267,21.5
4330,21.5
4393,21.5
4456,21.5
4519,21.5
4582,21.5
4645,21.5
4708,21.5
4771,21.5
4834,21.5
4897,0.0
4960,21.5
5023,21.5
5086,21.5
5149,21.5
5212,21.5
5275,21.5
5751,161452967.01079863
2,1,12,21, 0,14, 0.00,60.00,WinterDesignDay
7,-17.900000000000002
3410,-7.701375840738159
3411,-18.228327721000042
3412,21.34903452729833
3413,20.901817665044756
3414,21.13137195897082
3415,21.327855229684832
3416,20.897457121696437
3417,21.107531679490194
3418,21.367796669567635
3419,20.919500036586186
3420,21.164818642142663
3421,21.347495484970082
3422,20.91317490240228
3423,21.136792029684102
3424,-19.343741235786464
3425,21.114051109397046
3426,21.140818918259132
3427,21.361612615436524
3428,20.95192050445043
3429,20.942716174105247
3430,21.358212810217264
4015,0.0
4078,0.0
4141,21.5
4204,21.5
4267,21.5
4330,21.5
4393,21.5
4456,21.5
4519,21.5
4582,21.5
4645,21.5
4708,21.5
4771,21.5
4834,21.5
4897,0.0
4960,21.5
5023,21.5
5086,21.5
5149,21.5
5212,21.5
5275,21.5
5751,161452967.01079863
2,1,12,21, 0,15, 0.00,60.00,WinterDesignDay
7,-17.900000000000002
3410,-7.702862926009037
3411,-18.231740376888087
3412,21.497728323977327
3413,21.060510233771705
3414,21.307456037064032
3415,21.49281533119407
3416,21.055401662494372
3417,21.281259694105376
3418,21.497719887444003
3419,21.053407323197163
3420,21.313198816671527
3421,21.49238703518726
3422,21.0463528680476
3423,21.282251393309803
3424,-19.344071078061088
3425,21.262206700634394
3426,21.291100888160766
3427,21.495563975160607
3428,21.087165021040146
3429,21.07770936055162
3430,21.49480934688231
4015,0.0
4078,0.0
4141,21.5
4204,21.5
4267,21.5
4330,21.5
4393,21.5
4456,21.5
4519,21.5
4582,21.5
4645,21.5
4708,21.5
4771,21.5
4834,21.5
4897,0.0
4960,21.5
5023,21.5
5086,21.5
5149,21.5
5212,21.5
5275,21.5
5751,160724482.30190504
2,1,12,21, 0,16, 0.00,60.00,WinterDesignDay
7,-17.900000000000002
3410,-7.703912846073674
3411,-18.234971448473434
3412,21.499999978083064
3413,21.185347887318425
3414,21.44033518505293
3415,21.499999918571167
3416,21.179759977086807
3417,21.412370959515197
3418,21.49999997667341
3419,21.159787683503023
3420,21.42909781390664
3421,21.499999877415217
3422,21.15232247202536
3423,21.396061346469438
3424,-19.34449407992238
3425,21.386930062192647
3426,21.417459081898716
3427,21.499999952143394
3428,21.204472916258407
3429,21.19506779861069
3430,21.499999944755498
4015,0.0
4078,0.0
4141,21.5
4204,21.5
4267,21.5
4330,21.5
4393,21.5
4456,21.5
4519,21.5
4582,21.5
4645,21.5
4708,21.5
4771,21.5
4834,21.5
4897,0.0
4960,21.5
5023,21.5
5086,21.5
5149,21.5
5212,21.5
5275,21.5
5751,159230303.15283325
2,1,12,21, 0,17, 0.00,60.00,WinterDesignDay
7,-17.900000000000002
3410,-7.704041085304031
3411,-18.23777057680081
3412,21.04173227127875
3413,20.626269041978222
3414,20.919288360061078
3415,21.031129852683964
3416,20.62049155306647
3417,20.903115317255864
3418,20.997016683093353
3419,20.52203765130953
3420,20.873087183621877
3421,20.986142238669725
3422,20.513872738247496
3423,20.85157130579658
3424,-19.344951790800724
3425,20.908032931742355
3426,20.932297088093794
3427,21.061590839888026
3428,20.66880211793131
3429,20.658657869253336
3430,21.059826400623084
4015,0.0
4078,0.0
4141,21.5
4204,21.5
4267,21.5
4330,21.5
4393,21.5
4456,21.5
4519,21.5
4582,21.5
4645,21.5
4708,21.5
4771,21.5
4834,21.5
4897,0.0
4960,21.5
5023,21.5
5086,21.5
5149,21.5
5212,21.5
5275,21.5
5751,160427392.04014525
2,1,12,21, 0,18, 0.00,60.00,WinterDesignDay
7,-17.900000000000002
3410,-7.703485528230062
3411,-18.240677684951557
3412,20.869793450310496
3413,20.3098136644068
3414,20.650447651635773
3415,20.850117218162563
3416,20.303839540087523
3417,20.62280191281155
3418,20.816011531265314
3419,20.170912052251918
3420,20.598531606701897
3421,20.796410962295685
3422,20.162464769198973
3423,20.56473478419255
3424,-19.345332429523044
3425,20.65520991912157
3426,20.686611905228222
3427,20.90978107130718
3428,20.387914584438317
3429,20.37796548304139
3430,20.906563076250592
4015,0.0
4078,0.0
4141,21.5
4204,21.5
4267,21.5
4330,21.5
4393,21.5
4456,21.5
4519,21.5
4582,21.5
4645,21.5
4708,21.5
4771,21.5
4834,21.5
4897,0.0
4960,21.5
5023,21.5
5086,21.5
5149,21.5
5212,21.5
5275,21.5
5751,161452967.01079863
2,1,12,21, 0,19, 0.00,60.00,WinterDesignDay
7,-17.900000000000002
3410,-7.702920640983701
3411,-18.243389321053584
3412,21.497815187014282
3413,21.444881278184862
3414,21.4900329735775
3415,21.49767703633044
3416,21.442724591331114
3417,21.48759886636655
3418,21.497632245810234
3419,21.43326077139368
3420,21.488993699518165
3421,21.49749484559577
3422,21.430641021542453
3423,21.486046113091874
3424,-19.34555947240178
3425,21.487819394601413
3426,21.49055094941245
3427,21.498025171789493
3428,21.448045057054284
3429,21.445249631015884
3430,21.49799849324057
4015,0.0
4078,0.0
4141,21.5
4204,21.5
4267,21.5
4330,21.5
4393,21.5
4456,21.5
4519,21.5
4582,21.5
4645,21.5
4708,21.5
4771,21.5
4834,21.5
4897,0.0
4960,21.5
5023,21.5
5086,21.5
5149,21.5
5212,21.5
5275,21.5
5751,149282678.8307654
2,1,12,21, 0,20, 0.00,60.00,WinterDesignDay
7,-17.900000000000002
3410,-7.702473832561018
3411,-18.246214946041203
3412,21.499999997514305
3413,21.499999985329044
3414,21.499999997723677
3415,21.49999999772533
3416,21.49999998247637
3417,21.49999999757601
3418,21.49999999743355
3419,21.49999996981622
3420,21.499999996890025
3421,21.499999997660186
3422,21.49999996705091
3423,21.499999996678042
3424,-19.34566351405691
3425,21.499999997222222
3426,21.499999997439584
3427,21.499999997325094
3428,21.49999996427312
3429,21.499999961606452
3430,21.499999997337003
4015,0.0
4078,0.0
4141,21.5
4204,21.5
4267,21.5
4330,21.5
4393,21.5
4456,21.5
4519,21.5
4582,21.5
4645,21.5
4708,21.5
4771,21.5
4834,21.5
4897,0.0
4960,21.5
5023,21.5
5086,21.5
5149,21.5
5212,21.5
5275,21.5
5751,140892783.42275283
2,1,12,21, 0,21, 0.00,60.00,WinterDesignDay
7,-17.900000000000002
3410,-7.7012636469873526
3411,-18.248669679253553
3412,21.297228687902976
3413,21.046248851119202
3414,21.194451274786157
3415,21.287280055851877
3416,21.044258321339505
3417,21.18329790066483
3418,21.250803478870424
3419,20.956797006630186
3420,21.14811650565948
3421,21.240539344082023
3422,20.953265089835593
3423,21.133946767006517
3424,-19.345702205891538
3425,21.187682034056287
3426,21.199698779747347
3427,21.302639970145563
3428,21.071828231715077
3429,21.067291386590064
3430,21.300947434997582
4015,0.0
4078,0.0
4141,21.5
4204,21.5
4267,21.5
4330,21.5
4393,21.5
4456,21.5
4519,21.5
4582,21.5
4645,21.5
4708,21.5
4771,21.5
4834,21.5
4897,0.0
4960,21.5
5023,21.5
5086,21.5
5149,21.5
5212,21.5
5275,21.5
5751,155551401.69952857
2,1,12,21, 0,22, 0.00,60.00,WinterDesignDay
7,-17.900000000000002
3410,-7.6994279254194495
3411,-18.251222604733286
3412,21.221136678889085
3413,20.79918506016793
3414,21.043892048378662
3415,21.204056291201383
3416,20.795646529354908
3417,21.023939587548924
3418,21.181522491054555
3419,20.705005850220132
3420,21.01407445550275
3421,21.16440633200403
3422,20.698921196652947
3423,20.991526234790484
3424,-19.345622565783348
3425,21.049948294634934
3426,21.07085303217536
3427,21.24213907139736
3428,20.865844969728894
3429,20.858326414643475
3430,21.239301369779998
4015,0.0
4078,0.0
4141,21.5
4204,21.5
4267,21.5
4330,21.5
4393,21.5
4456,21.5
4519,21.5
4582,21.5
4645,21.5
4708,21.5
4771,21.5
4834,21.5
4897,0.0
4960,21.5
5023,21.5
5086,21.5
5149,21.5
5212,21.5
5275,21.5
5751,160597486.1994586
2,1,12,21, 0,23, 0.00,60.00,WinterDesignDay
7,-17.900000000000002
3410,-7.697793538152511
3411,-18.253544951629316
3412,21.499272150644853
3413,21.496828063514688
3414,21.498617636023805
3415,21.4992075747755
3416,21.496469186502953
3417,21.498509532003794
3418,21.499676211570048
3419,21.498455022877934
3420,21.499147392038065
3421,21.49960487687035
3422,21.498437174135134
3423,21.499103051591174
3424,-19.345351346455807
3425,21.498643000578358
3426,21.498757209014403
3427,21.49934976372846
3428,21.498020037096538
3429,21.498016067851278
3430,21.499336816557904
4015,0.0
4078,0.0
4141,21.5
4204,21.5
4267,21.5
4330,21.5
4393,21.5
4456,21.5
4519,21.5
4582,21.5
4645,21.5
4708,21.5
4771,21.5
4834,21.5
4897,0.0
4960,21.5
5023,21.5
5086,21.5
5149,21.5
5212,21.5
5275,21.5
5751,141876035.8676662
2,1,12,21, 0,24, 0.00,60.00,WinterDesignDay
7,-17.900000000000002
3410,-7.696854802483167
3411,-18.25595841654736
3412,21.49999999921739
3413,21.4999999999484
3414,21.49999999971075
3415,21.499999999262695
3416,21.499999999943103
3417,21.499999999739703
3418,21.499999999685908
3419,21.499999999971
3420,21.49999999978988
3421,21.49999999966727
3422,21.49999999997256
3423,21.499999999818513
3424,-19.344960699183506
3425,21.499999999736687
3426,21.499999999705185
3427,21.49999999920963
3428,21.499999999931912
3429,21.499999999940986
3430,21.49999999920745
4015,0.0
4078,0.0
4141,21.5
4204,21.5
4267,21.5
4330,21.5
4393,21.5
4456,21.5
4519,21.5
4582,21.5
4645,21.5
4708,21.5
4771,21.5
4834,21.5
4897,0.0
4960,21.5
5023,21.5
5086,21.5
5149,21.5
5212,21.5
5275,21.5
5751,143097777.73269162
1,DENVER-AURORA-BUCKLEY.AFB_CO_USA ANN CLG .4% CONDNS DB=>MWB,  39.74,-105.18,  -7.00,1829.00
2,1, 7,21, 0, 1, 0.00,60.00,SummerDesignDay
7,21.246
3410,20.707014327857806
3411,30.97072218226765
3412,23.888907377866726
3413,23.888896435385746
3414,23.888902972741732
3415,23.888906944340757
3416,23.888896477674795
3417,23.88890255409279
3418,23.88890765849963
3419,23.88889546473047
3420,23.88890330066828
3421,23.888907181164498
3422,23.888895354299837
3423,23.888902719490286
3424,20.23565350463059
3425,23.8889022798685
3426,23.88890293683696
3427,23.888908379213518
3428,23.888896362499963
3429,23.88889595167669
3430,23.888908321164354
4015,0.0
4078,0.0
4141,21.5
4204,21.5
4267,21.5
4330,21.5
4393,21.5
4456,21.5
4519,21.5
4582,21.5
4645,21.5
4708,21.5
4771,21.5
4834,21.5
4897,0.0
4960,21.5
5023,21.5
5086,21.5
5149,21.5
5212,21.5
5275,21.5
5751,0.0
2,1, 7,21, 0, 2, 0.00,60.00,SummerDesignDay
7,20.530666666666665
3410,20.16107711615101
3411,30.847845397102134
3412,23.888905854749698
3413,23.88889732515439
3414,23.88890226739746
3415,23.888905501457383
3416,23.888897330197633
3417,23.8889019348187
3418,23.888906891382117
3419,23.888896558398496
3420,23.88890312905325
3421,23.888906491837904
3422,23.8888964359669
3423,23.888902659856672
3424,19.411411312911127
3425,23.88890269169998
3426,23.888903209781734
3427,23.888907810001466
3428,23.88889762972143
3429,23.88889725103321
3430,23.888907764802564
4015,0.0
4078,0.0
4141,21.5
4204,21.5
4267,21.5
4330,21.5
4393,21.5
4456,21.5
4519,21.5
4582,21.5
4645,21.5
4708,21.5
4771,21.5
4834,21.5
4897,0.0
4960,21.5
5023,21.5
5086,21.5
5149,21.5
5212,21.5
5275,21.5
5751,0.0
2,1, 7,21, 0, 3, 0.00,60.00,SummerDesignDay
7,20.024999999999995
3410,19.765976914048228
3411,30.66341000531382
3412,23.888903927701495
3413,23.888897686755683
3414,23.888901064593924
3415,23.888903643727065
3416,23.88889767146192
3417,23.888900817773205
3418,23.8889056572503
3419,23.88889724927405
3420,23.88890250854588
3421,23.888905337470472
3422,23.888897122330537
3423,23.888902134964052
3424,18.803736950293267
3425,23.888902483057567
3426,23.888902877112752
3427,23.88890665832226
3428,23.888898425467332
3429,23.88889809397762
3430,23.88890663417011
4015,0.0
4078,0.0
4141,21.5
4204,21.5
4267,21.5
4330,21.5
4393,21.5
4456,21.5
4519,21.5
4582,21.5
4645,21.5
4708,21.5
4771,21.5
4834,21.5
4897,0.0
4960,21.5
5023,21.5
5086,21.5
5149,21.5
5212,21.5
5275,21.5
5751,0.0
2,1, 7,21, 0, 4, 0.00,60.00,SummerDesignDay
7,19.581
3410,19.42434837534266
3411,30.430694441186528
3412,23.888901727734318
3413,23.888897630151074
3414,23.888899492846466
3415,23.8889014935945
3416,23.888897597981966
3417,23.888899318775476
3418,23.888904121114436
3419,23.888897620663528
3420,23.888901536525776
3421,23.88890386433962
3422,23.888897496321977
3423,23.88890126208788
3424,18.31047836970642
3425,23.888901768956046
3426,23.88890204332114
3427,23.888905075874238
3428,23.88889882143013
3429,23.888898531128607
3430,23.888905056734313
4015,0.0
4078,0.0
4141,21.5
4204,21.5
4267,21.5
4330,21.5
4393,21.5
4456,21.5
4519,21.5
4582,21.5
4645,21.5
4708,21.5
4771,21.5
4834,21.5
4897,0.0
4960,21.5
5023,21.5
5086,21.5
5149,21.5
5212,21.5
5275,21.5
5751,0.0
2,1, 7,21, 0, 5, 0.00,60.00,SummerDesignDay
7,19.22333333333333
3410,19.135736939504586
3411,30.161328903135338
3412,23.8888998900069
3413,23.888897375147764
3414,23.88889819782897
3415,23.88889972724478
3416,23.888897347537455
3417,23.88889809488158
3418,23.88890275051267
3419,23.888897731413987
3420,23.888900668927434
3421,23.888902561162908
3422,23.888897620555085
3423,23.88890046721535
3424,17.89409617509285
3425,23.888900931244134
3426,23.888901115172178
3427,23.88890351812527
3428,23.888898888342037
3429,23.888898637451984
3430,23.88890352223493
4015,0.0
4078,0.0
4141,21.5
4204,21.5
4267,21.5
4330,21.5
4393,21.5
4456,21.5
4519,21.5
4582,21.5
4645,21.5
4708,21.5
4771,21.5
4834,21.5
4897,0.0
4960,21.5
5023,21.5
5086,21.5
5149,21.5
5212,21.5
5275,21.5
5751,0.0
2,1, 7,21, 0, 6, 0.00,60.00,SummerDesignDay
7,19.272666666666666
3410,19.12100873916806
3411,29.864930901834125
3412,23.88890063700488
3413,23.88889750450191
3414,23.888902073082097
3415,23.88890179704553
3416,23.888897682139696
3417,23.888901783065734
3418,23.8889031445056
3419,23.888897780338766
3420,23.88890281687581
3421,23.888903805086816
3422,23.888897541603328
3423,23.888902329569138
3424,18.126939237052543
3425,23.888902354226943
3426,23.888902813731317
3427,23.888903609173767
3428,23.88889894548015
3429,23.888898695584363
3430,23.8889044219914
4015,0.0
4078,0.0
4141,21.5
4204,21.5
4267,21.5
4330,21.5
4393,21.5
4456,21.5
4519,21.5
4582,21.5
4645,21.5
4708,21.5
4771,21.5
4834,21.5
4897,0.0
4960,21.5
5023,21.5
5086,21.5
5149,21.5
5212,21.5
5275,21.5
5751,0.0
2,1, 7,21, 0, 7, 0.00,60.00,SummerDesignDay
7,20.00033333333333
3410,19.58496488418645
3411,29.573984691185725
3412,23.888897180074565
3413,23.888893731395644
3414,23.88889607340941
3415,23.888898015811606
3416,23.888893620731597
3417,23.88889519921857
3418,23.888898172409416
3419,23.888893492334134
3420,23.888897689281418
3421,23.888898720007905
3422,23.888893158278695
3423,23.888896913067246
3424,20.020432971651363
3425,23.8888949730331
3426,23.88889591027628
3427,23.88889835434441
3428,23.888894085806545
3429,23.888894097070374
3430,23.888898998986065
4015,0.0
4078,0.0
4141,21.5
4204,21.5
4267,21.5
4330,21.5
4393,21.5
4456,21.5
4519,21.5
4582,21.5
4645,21.5
4708,21.5
4771,21.5
4834,21.5
4897,0.0
4960,21.5
5023,21.5
5086,21.5
5149,21.5
5212,21.5
5275,21.5
5751,0.0
2,1, 7,21, 0, 8, 0.00,60.00,SummerDesignDay
7,21.899666666666665
3410,20.79448102772907
3411,29.270324654383685
3412,23.580297789399776
3413,23.54734449567535
3414,23.888897094287845
3415,23.60911880311298
3416,23.57714998163918
3417,23.88889669850333
3418,23.597938734525385
3419,23.568267590017953
3420,23.88889823630912
3421,23.632525795886565
3422,23.60372452607112
3423,23.88889768966924
3424,23.996551802698278
3425,23.888896998508766
3426,23.88889744491479
3427,23.652805530445765
3428,23.651887245462408
3429,23.62479539374759
3430,23.67919272116389
4015,0.0
4078,0.0
4141,21.500000000000004
4204,21.500000000000004
4267,21.500000000000004
4330,21.500000000000004
4393,21.500000000000004
4456,21.500000000000004
4519,21.500000000000004
4582,21.500000000000004
4645,21.500000000000004
4708,21.500000000000004
4771,21.500000000000004
4834,21.500000000000004
4897,0.0
4960,21.500000000000004
5023,21.500000000000004
5086,21.500000000000004
5149,21.500000000000004
5212,21.500000000000004
5275,21.500000000000004
5751,0.0
2,1, 7,21, 0, 9, 0.00,60.00,SummerDesignDay
7,24.588333333333328
3410,22.571699365903935
3411,28.94425546085593
3412,23.281018859145068
3413,23.16800073294173
3414,23.888911976861845
3415,23.32709982319655
3416,23.215391163776506
3417,23.888906707812826
3418,23.472725637785913
3419,23.393059969565442
3420,23.888903649351416
3421,23.517943208775936
3422,23.43920573312246
3423,23.88890248106104
3424,29.17152801332162
3425,23.888907068575676
3426,23.888908323955434
3427,23.46865448015346
3428,23.417989715403426
3429,23.378086396679535
3430,23.507526149904532
4015,0.0
4078,0.0
4141,21.500000000000004
4204,21.500000000000004
4267,21.500000000000004
4330,21.500000000000004
4393,21.500000000000004
4456,21.500000000000004
4519,21.500000000000004
4582,21.500000000000004
4645,21.500000000000004
4708,21.500000000000004
4771,21.500000000000004
4834,21.500000000000004
4897,0.0
4960,21.500000000000004
5023,21.500000000000004
5086,21.500000000000004
5149,21.500000000000004
5212,21.500000000000004
5275,21.500000000000004
5751,0.0