Program Version,EnergyPlus, Version 9.6.0-f420c06a69, YMD=2022.04.09 23:19
1,5,Environment Title[],Latitude[deg],Longitude[deg],Time Zone[],Elevation[m]
2,8,Day of Simulation[],Month[],Day of Month[],DST Indicator[1=yes 0=no],Hour[],StartMinute[],EndMinute[],DayType
3,5,Cumulative Day of Simulation[],Month[],Day of Month[],DST Indicator[1=yes 0=no],DayType  ! When Daily Report Variables Requested
4,2,Cumulative Days of Simulation[],Month[]  ! When Monthly Report Variables Requested
5,1,Cumulative Days of Simulation[] ! When Run Period Report Variables Requested
6,1,Calendar Year of Simulation[] ! When Annual Report Variables Requested
7,1,Environment,Site Outdoor Air Drybulb Temperature [C] !Hourly
642,1,LIVING ZONE,Zone Mean Air Temperature [C] !Hourly
643,1,UNFINISHED ATTIC ZONE,Zone Mean Air Temperature [C] !Hourly
778,1,LIVING ZONE,Zone Thermostat Heating Setpoint Temperature [C] !Hourly
841,1,UNFINISHED ATTIC ZONE,Zone Thermostat Heating Setpoint Temperature [C] !Hourly
905,1,Heating:Electricity [J] !Hourly
End of Data Dictionary
1,RUN PERIOD 1,  39.74,-105.18,  -7.00,1829.00
2,1, 1, 1, 0, 1, 0.00,60.00,Sunday
7,-4.5
642,15.834989479051888
643,-5.520141361650542
778,21.5
841,0.0
905,20520000.0
2,1, 1, 1, 0, 2, 0.00,60.00,Sunday
7,-3.0
642,15.941433698705364
643,-5.079125015857995
778,21.5
841,0.0
905,20520000.0
2,1, 1, 1, 0, 3, 0.00,60.00,Sunday
7,-3.625
642,15.58192458568137
643,-4.8762611279226595
778,21.5
841,0.0
905,20520000.0
2,1, 1, 1, 0, 4, 0.00,60.00,Sunday
7,-2.75
642,15.498731427927844
643,-4.638730866506823
778,21.5
841,0.0
905,20520000.0
2,1, 1, 1, 0, 5, 0.00,60.00,Sunday
7,-2.0
642,15.501861879011175
643,-3.890692087509912
778,21.5
841,0.0
905,20520000.0
2,1, 1, 1, 0, 6, 0.00,60.00,Sunday
7,-1.375
642,15.558125535458277
643,-3.0817108946711786
778,21.5
841,0.0
905,20520000.0
2,1, 1, 1, 0, 7, 0.00,60.00,Sunday
7,-1.0
642,15.935443706098622
643,-2.6128746888124437
778,21.5
841,0.0
905,20520000.0
2,1, 1, 1, 0, 8, 0.00,60.00,Sunday
7,-1.0
642,16.309418972413752
643,-2.0867087378241203
778,21.5
841,0.0
905,20520000.0
2,1, 1, 1, 0, 9, 0.00,60.00,Sunday
7,-0.375
642,17.305896788549592
643,-0.07369166713246056
778,21.5
841,0.0
905,20520000.0
2,1, 1, 1, 0,10, 0.00,60.00,Sunday
7,1.25
642,17.354270283392744
643,2.8439096931085275
778,21.5
841,0.0
905,20520000.0
2,1, 1, 1, 0,11, 0.00,60.00,Sunday
7,2.0
642,18.858546299730005
643,5.566014387696328
778,21.5
841,0.0
905,20520000.0
2,1, 1, 1, 0,12, 0.00,60.00,Sunday
7,1.375
642,18.43894652812165
643,8.018469900562776
778,21.5
841,0.0
905,20520000.0
2,1, 1, 1, 0,13, 0.00,60.00,Sunday
7,2.25
642,18.77919015810204
643,7.93464180228528
778,21.5
841,0.0
905,20520000.0
2,1, 1, 1, 0,14, 0.00,60.00,Sunday
7,2.375
642,18.926735964578604
643,7.160929227872753
778,21.5
841,0.0
905,20520000.0
2,1, 1, 1, 0,15, 0.00,60.00,Sunday
7,1.375
642,18.46894754460874
643,5.174756890019403
778,21.5
841,0.0
905,20520000.0
2,1, 1, 1, 0,16, 0.00,60.00,Sunday
7,1.0
642,18.288232121401162
643,3.6462045139609742
778,21.5
841,0.0
905,20520000.0
2,1, 1, 1, 0,17, 0.00,60.00,Sunday
7,0.375
642,18.082843610387435
643,2.71425993256988
778,21.5
841,0.0
905,20520000.0
2,1, 1, 1, 0,18, 0.00,60.00,Sunday
7,-0.625
642,17.55299394165872
643,1.2705512158783294
778,21.5
841,0.0
905,20520000.0
2,1, 1, 1, 0,19, 0.00,60.00,Sunday
7,-1.625
642,16.96770558322512
643,-0.0009342628520723067
778,21.5
841,0.0
905,20520000.0
2,1, 1, 1, 0,20, 0.00,60.00,Sunday
7,-3.25
642,15.804214949417581
643,-1.565774563558679
778,21.5
841,0.0
905,20520000.0
2,1, 1, 1, 0,21, 0.00,60.00,Sunday
7,-4.625
642,14.797963709293569
643,-2.9855113405107097
778,21.5
841,0.0
905,20520000.0
2,1, 1, 1, 0,22, 0.00,60.00,Sunday
7,-5.625
642,14.525464154082936
643,-3.932658384145669
778,21.5
841,0.0
905,20520000.0
2,1, 1, 1, 0,23, 0.00,60.00,Sunday
7,-6.625
642,13.619037012602112
643,-5.096919776942618
778,21.5
841,0.0
905,20520000.0
2,1, 1, 1, 0,24, 0.00,60.00,Sunday
7,-7.0
642,12.594024911377687
643,-5.9974807623290145
778,21.5
841,0.0
905,20520000.0
End of Data
 Number of Records Written=         144
