Program Version,EnergyPlus, Version 9.6.0-f420c06a69, YMD=2022.04.09 18:46
1,5,Environment Title[],Latitude[deg],Longitude[deg],Time Zone[],Elevation[m]
2,8,Day of Simulation[],Month[],Day of Month[],DST Indicator[1=yes 0=no],Hour[],StartMinute[],EndMinute[],DayType
3,5,Cumulative Day of Simulation[],Month[],Day of Month[],DST Indicator[1=yes 0=no],DayType  ! When Daily Report Variables Requested
4,2,Cumulative Days of Simulation[],Month[]  ! When Monthly Report Variables Requested
5,1,Cumulative Days of Simulation[] ! When Run Period Report Variables Requested
6,1,Calendar Year of Simulation[] ! When Annual Report Variables Requested
7,1,Environment,Site Outdoor Air Drybulb Temperature [C] !Hourly
628,1,CORRIDOR ZONE,Zone Mean Air Temperature [C] !Hourly
629,1,CRAWL CORRIDOR ZONE,Zone Mean Air Temperature [C] !Hourly
630,1,CRAWL ZONE,Zone Mean Air Temperature [C] !Hourly
631,1,LIVING ZONE,Zone Mean Air Temperature [C] !Hourly
766,1,CORRIDOR ZONE,Zone Thermostat Heating Setpoint Temperature [C] !Hourly
829,1,CRAWL CORRIDOR ZONE,Zone Thermostat Heating Setpoint Temperature [C] !Hourly
892,1,CRAWL ZONE,Zone Thermostat Heating Setpoint Temperature [C] !Hourly
955,1,LIVING ZONE,Zone Thermostat Heating Setpoint Temperature [C] !Hourly
1776,1,Heating:NaturalGas [J] !Hourly
End of Data Dictionary
1,ANN CLG 1% CONDNS DB=>MWB,  39.74,-105.18,  -7.00,1829.00
2,1, 7,21, 0, 1, 0.00,60.00,SummerDesignDay
7,22.226250000000004
628,21.819220806245916
629,21.213380826192296
630,20.944964271569564
631,23.965668975600625
766,0.0
829,0.0
892,0.0
955,21.5
1776,0.0
2,1, 7,21, 0, 2, 0.00,60.00,SummerDesignDay
7,21.917500000000004
628,21.753634697571727
629,21.11620485406071
630,20.81736754926498
631,23.88165249681034
766,0.0
829,0.0
892,0.0
955,21.5
1776,0.0
2,1, 7,21, 0, 3, 0.00,60.00,SummerDesignDay
7,21.698125
628,21.682344339820656
629,21.043780984249118
630,20.721774448105684
631,23.689476020545747
766,0.0
829,0.0
892,0.0
955,21.5
1776,0.0
2,1, 7,21, 0, 4, 0.00,60.00,SummerDesignDay
7,21.503125000000004
628,21.61032699846064
629,20.979069180931834
630,20.638066771027027
631,23.537176158917006
766,0.0
829,0.0
892,0.0
955,21.5
1776,0.0
2,1, 7,21, 0, 5, 0.00,60.00,SummerDesignDay
7,21.34875
628,21.53836416933995
629,20.92232176800815
630,20.564616767195673
631,23.383844469042373
766,0.0
829,0.0
892,0.0
955,21.5
1776,0.0
2,1, 7,21, 0, 6, 0.00,60.00,SummerDesignDay
7,21.38125
628,21.467600492141074
629,20.897211749681123
630,20.529522932476503
631,23.307584095539237
766,0.0
829,0.0
892,0.0
955,21.5
1776,0.0
2,1, 7,21, 0, 7, 0.00,60.00,SummerDesignDay
7,21.714375
628,21.40324297454509
629,20.924777602886138
630,20.562891956984537
631,23.32519010967616
766,0.0
829,0.0
892,0.0
955,21.5
1776,0.0
2,1, 7,21, 0, 8, 0.00,60.00,SummerDesignDay
7,22.575625000000002
628,21.354556519136224
629,21.047933425500577
630,20.726140546427565
631,23.483218561391634
766,0.0
829,0.0
892,0.0
955,21.5
1776,0.0
2,1, 7,21, 0, 9, 0.00,60.00,SummerDesignDay
7,23.761875000000003
628,21.333233804237658
629,21.23416860158696
630,21.024667620808017
631,23.96530692223533
766,0.0
829,0.0
892,0.0
955,21.5
1776,0.0
2,1, 7,21, 0,10, 0.00,60.00,SummerDesignDay
7,24.915625000000002
628,21.33577901779592
629,21.412193105996966
630,21.306420801975907
631,23.95421671770086
766,0.0
829,0.0
892,0.0
955,21.5
1776,0.0
2,1, 7,21, 0,11, 0.00,60.00,SummerDesignDay
7,25.939375
628,21.387563992370396
629,21.562551958115108
630,21.53562503733714
631,24.000036912143358
766,0.0
829,0.0
892,0.0
955,21.5
1776,0.0
2,1, 7,21, 0,12, 0.00,60.00,SummerDesignDay
7,26.71125
628,21.454533715222553
629,21.68538970914325
630,21.721728118413292
631,24.000056501828983
766,0.0
829,0.0
892,0.0
955,21.5
1776,0.0
2,1, 7,21, 0,13, 0.00,60.00,SummerDesignDay
7,27.28
628,21.533842233998058
629,21.785984482220083
630,21.872021854022044
631,23.99994515922564
766,0.0
829,0.0
892,0.0
955,21.5
1776,0.0
2,1, 7,21, 0,14, 0.00,60.00,SummerDesignDay
7,27.678124999999998
628,21.61947123433599
629,21.86899734785746
630,21.995478111488307
631,23.99994930990005
766,0.0
829,0.0
892,0.0
955,21.5
1776,0.0
2,1, 7,21, 0,15, 0.00,60.00,SummerDesignDay
7,27.8
628,21.706807819937573
629,21.922243791156195
630,22.074801804010246
631,23.999952696632327
766,0.0
829,0.0
892,0.0
955,21.5
1776,0.0
2,1, 7,21, 0,16, 0.00,60.00,SummerDesignDay
7,27.55625
628,21.78839025348739
629,21.933037302433043
630,22.091526935704117
631,23.999959545508553
766,0.0
829,0.0
892,0.0
955,21.5
1776,0.0
2,1, 7,21, 0,17, 0.00,60.00,SummerDesignDay
7,27.085
628,21.855220223924462
629,21.911098951550763
630,22.059453488510464
631,23.99997145697902
766,0.0
829,0.0
892,0.0
955,21.5
1776,0.0
2,1, 7,21, 0,18, 0.00,60.00,SummerDesignDay
7,26.48375
628,21.902464313121317
629,21.865603268355024
630,21.995703883671425
631,24.000170945097054
766,0.0
829,0.0
892,0.0
955,21.5
1776,0.0
2,1, 7,21, 0,19, 0.00,60.00,SummerDesignDay
7,25.630625
628,21.929246127295823
629,21.780384290418397
630,21.879813022925514
631,24.000054362428422
766,0.0
829,0.0
892,0.0
955,21.5
1776,0.0
2,1, 7,21, 0,20, 0.00,60.00,SummerDesignDay
7,24.818125
628,21.930971737901785
629,21.682485435795897
630,21.74202106344037
631,23.999938206739706
766,0.0
829,0.0
892,0.0
955,21.5
1776,0.0
2,1, 7,21, 0,21, 0.00,60.00,SummerDesignDay
7,24.184375000000003
628,21.911571626660002
629,21.594974109952346
630,21.6162427294667
631,23.99994843018712
766,0.0
829,0.0
892,0.0
955,21.5
1776,0.0
2,1, 7,21, 0,22, 0.00,60.00,SummerDesignDay
7,23.599375000000002
628,21.877855833334102
629,21.504058469954245
630,21.48364618502124
631,24.000001584027746
766,0.0
829,0.0
892,0.0
955,21.5
1776,0.0
2,1, 7,21, 0,23, 0.00,60.00,SummerDesignDay
7,23.095625000000002
628,21.83188546692249
629,21.413174609806827
630,21.339732249710654
631,24.00003368593745
766,0.0
829,0.0
892,0.0
955,21.5
1776,0.0
2,1, 7,21, 0,24, 0.00,60.00,SummerDesignDay
7,22.640625
628,21.775824577297524
629,21.31979822672064
630,21.19690807428696
631,24.00005487448756
766,0.0
829,0.0
892,0.0
955,21.5
1776,0.0
1,ANN HTG 99% CONDNS DB,  39.74,-105.18,  -7.00,1829.00
2,1, 1,21, 0, 1, 0.00,60.00,WinterDesignDay
7,7.6
628,16.042583025143532
629,17.968840733045553
630,17.5115443312266
631,21.49982480979608
766,0.0
829,0.0
892,0.0
955,21.5
1776,8142124.722253364
2,1, 1,21, 0, 2, 0.00,60.00,WinterDesignDay
7,7.6
628,16.017748103574917
629,17.77762720207027
630,17.22032576365283
631,21.49985507216114
766,0.0
829,0.0
892,0.0
955,21.5
1776,8299585.549654018
2,1, 1,21, 0, 3, 0.00,60.00,WinterDesignDay
7,7.6
628,15.984603875231862
629,17.633461604748504
630,17.009727283862038
631,21.49988898545605
766,0.0
829,0.0
892,0.0
955,21.5
1776,8438886.666144516
2,1, 1,21, 0, 4, 0.00,60.00,WinterDesignDay
7,7.6
628,15.944596910917271
629,17.498605701719903
630,16.818525696956108
631,21.499914890400966
766,0.0
829,0.0
892,0.0
955,21.5
1776,8567635.45482488
2,1, 1,21, 0, 5, 0.00,60.00,WinterDesignDay
7,7.6
628,15.899386234901185
629,17.372444325309903
630,16.645890189608796
631,21.49993475933671
766,0.0
829,0.0
892,0.0
955,21.5
1776,8686906.946456106
2,1, 1,21, 0, 6, 0.00,60.00,WinterDesignDay
7,7.6
628,15.849994206333108
629,17.25316693347842
630,16.48711503904631
631,21.499947626943495
766,0.0
829,0.0
892,0.0
955,21.5
1776,8778157.576733507
2,1, 1,21, 0, 7, 0.00,60.00,WinterDesignDay
7,7.6
628,15.797295151090939
629,17.13956343332312
630,16.339687249591876
631,21.49995970567307
766,0.0
829,0.0
892,0.0
955,21.5
1776,8880410.365148503
2,1, 1,21, 0, 8, 0.00,60.00,WinterDesignDay
7,7.6
628,15.741483026000576
629,17.03061681936019
630,16.201572975254876
631,21.49958860499182
766,0.0
829,0.0
892,0.0
955,21.5
1776,8973049.19293875
2,1, 1,21, 0, 9, 0.00,60.00,WinterDesignDay
7,7.6
628,15.683277975920245
629,16.925713257865315
630,16.07162312211555
631,21.49976221323197
766,0.0
829,0.0
892,0.0
955,21.5
1776,8190489.1620573085
2,1, 1,21, 0,10, 0.00,60.00,WinterDesignDay
7,7.6
628,15.623234238955046
629,16.824340821363425
630,15.950518159995553
631,21.499850111559493
766,0.0
829,0.0
892,0.0
955,21.5
1776,8270920.174656735
2,1, 1,21, 0,11, 0.00,60.00,WinterDesignDay
7,7.6
628,15.561701587130356
629,16.726150278381805
630,15.835832919462371
631,21.499770455710017
766,0.0
829,0.0
892,0.0
955,21.5
1776,8044519.449269157
2,1, 1,21, 0,12, 0.00,60.00,WinterDesignDay
7,7.6
628,15.498987246320581
629,16.63078711882644
630,15.726673645079485
631,21.499704275411506
766,0.0
829,0.0
892,0.0
955,21.5
1776,7874055.105034667
2,1, 1,21, 0,13, 0.00,60.00,WinterDesignDay
7,7.6
628,15.435198599661724
629,16.537972875113947
630,15.622993450146685
631,21.49961391329922
766,0.0
829,0.0
892,0.0
955,21.5
1776,7668382.618249403
2,1, 1,21, 0,14, 0.00,60.00,WinterDesignDay
7,7.6
628,15.370915190335571
629,16.44756487153182
630,15.525268229910413
631,21.499694802986777
766,0.0
829,0.0
892,0.0
955,21.5
1776,7908119.935651617
2,1, 1,21, 0,15, 0.00,60.00,WinterDesignDay
7,7.6
628,15.306126030932415
629,16.359381943720592
630,15.429721946135908
631,21.499184913707722
766,0.0
829,0.0
892,0.0
955,21.5
1776,9113693.168436572
2,1, 1,21, 0,16, 0.00,60.00,WinterDesignDay
7,7.6
628,15.241026436323796
629,16.27312355081899
630,15.333484930201177
631,21.499571618394477
766,0.0
829,0.0
892,0.0
955,21.5
1776,9529687.914251704
2,1, 1,21, 0,17, 0.00,60.00,WinterDesignDay
7,7.6
628,15.175759788541075
629,16.188560434029878
630,15.239881499105955
631,21.499619649561293
766,0.0
829,0.0
892,0.0
955,21.5
1776,9603565.556366298
2,1, 1,21, 0,18, 0.00,60.00,WinterDesignDay
7,7.6
628,15.110233115014651
629,16.10564136556841
630,15.150171540457322
631,21.499370108131757
766,0.0
829,0.0
892,0.0
955,21.5
1776,7849503.8250686135
2,1, 1,21, 0,19, 0.00,60.00,WinterDesignDay
7,7.6
628,15.044927077596164
629,16.024456711487634
630,15.067938114859004
631,21.4997062318785
766,0.0
829,0.0
892,0.0
955,21.5
1776,7878173.968060286
2,1, 1,21, 0,20, 0.00,60.00,WinterDesignDay
7,7.6
628,14.979881030514305
629,15.94509949268249
630,14.989605714652114
631,21.49976561827475
766,0.0
829,0.0
892,0.0
955,21.5
1776,8001379.071289194
2,1, 1,21, 0,21, 0.00,60.00,WinterDesignDay
7,7.6
628,14.915098780756058
629,15.867444160226212
630,14.912885347714393
631,21.4998072215334
766,0.0
829,0.0
892,0.0
955,21.5
1776,8124273.632114068
2,1, 1,21, 0,22, 0.00,60.00,WinterDesignDay
7,7.6
628,14.850666933947656
629,15.791341732773816
630,14.837786283753235
631,21.499866380600743
766,0.0
829,0.0
892,0.0
955,21.5
1776,7224982.245434538
2,1, 1,21, 0,23, 0.00,60.00,WinterDesignDay
7,7.6
628,14.78665547063867
629,15.71668945082257
630,14.764071733647222
631,21.49992019388564
766,0.0
829,0.0
892,0.0
955,21.5
1776,8535448.602302369
2,1, 1,21, 0,24, 0.00,60.00,WinterDesignDay
7,7.6
628,14.723121484192646
629,15.643397995914254
630,14.691101549588637
631,21.499308363714206
766,0.0
829,0.0
892,0.0
955,21.5
1776,8806894.563247645
1,RUN PERIOD 1,  39.74,-105.18,  -7.00,1829.00
2,1, 1, 1, 0, 1, 0.00,60.00,Sunday
7,-4.5
628,12.885578248833248
629,15.964956784035362
630,15.278310765405422
631,18.681540762329504
766,0.0
829,0.0
892,0.0
955,21.5
1776,13306818.790868126
2,1, 1, 1, 0, 2, 0.00,60.00,Sunday
7,-3.0
628,12.803637351856999
629,15.902445031154523
630,15.172640527769937
631,19.115101923260365
766,0.0
829,0.0
892,0.0
955,21.5
1776,13201076.115345854
2,1, 1, 1, 0, 3, 0.00,60.00,Sunday
7,-3.625
628,12.772252172621812
629,15.648425495991495
630,14.793654993877084
631,19.007314838772906
766,0.0
829,0.0
892,0.0
955,21.5
1776,13208546.773721876
2,1, 1, 1, 0, 4, 0.00,60.00,Sunday
7,-2.75
628,12.718140893753588
629,15.535914099440648
630,14.618587554390885
631,18.69879141874026
766,0.0
829,0.0
892,0.0
955,21.5
1776,13260297.292689625
2,1, 1, 1, 0, 5, 0.00,60.00,Sunday
7,-2.0
628,12.67440894524698
629,15.437596809352435
630,14.489738083312702
631,19.10648826227851
766,0.0
829,0.0
892,0.0
955,21.5
1776,13214620.210121673
2,1, 1, 1, 0, 6, 0.00,60.00,Sunday
7,-1.375
628,12.635955510773135
629,15.336614803173859
630,14.35279796308396
631,19.282564079522448
766,0.0
829,0.0
892,0.0
955,21.5
1776,13178380.67126824
2,1, 1, 1, 0, 7, 0.00,60.00,Sunday
7,-1.0
628,12.613454529661723
629,15.225379187146016
630,14.21604435382775
631,19.728076914481385
766,0.0
829,0.0
892,0.0
955,21.5
1776,13108163.008743364
2,1, 1, 1, 0, 8, 0.00,60.00,Sunday
7,-1.0
628,12.590451464084882
629,15.08426062817485
630,14.039945158797817
631,20.32900347344784
766,0.0
829,0.0
892,0.0
955,21.5
1776,12944106.91464511
2,1, 1, 1, 0, 9, 0.00,60.00,Sunday
7,-0.375
628,12.56691626017902
629,15.007228949122961
630,13.961350557170508
631,20.457072951512984
766,0.0
829,0.0
892,0.0
955,21.5
1776,12735600.971971938
2,1, 1, 1, 0,10, 0.00,60.00,Sunday
7,1.25
628,12.572157326359973
629,15.048358768061535
630,14.057541645896453
631,21.174637826839046
766,0.0
829,0.0
892,0.0
955,21.5
1776,12115234.340812942
2,1, 1, 1, 0,11, 0.00,60.00,Sunday
7,2.0
628,12.618365450971122
629,15.03501955980967
630,14.088054229515311
631,21.1974763959007
766,0.0
829,0.0
892,0.0
955,21.5
1776,11999648.05015698
2,1, 1, 1, 0,12, 0.00,60.00,Sunday
7,1.375
628,12.766665317804707
629,14.884923916973623
630,13.923048688791473
631,20.84140205407256
766,0.0
829,0.0
892,0.0
955,21.5
1776,12859130.366546046
2,1, 1, 1, 0,13, 0.00,60.00,Sunday
7,2.25
628,12.82470353637965
629,14.882559572095317
630,13.946618176482769
631,20.886266325675255
766,0.0
829,0.0
892,0.0
955,21.5
1776,12883750.406102268
2,1, 1, 1, 0,14, 0.00,60.00,Sunday
7,2.375
628,12.804201697040003
629,14.824684954068678
630,13.910970152675464
631,21.09377134889657
766,0.0
829,0.0
892,0.0
955,21.5
1776,12828902.713249233
2,1, 1, 1, 0,15, 0.00,60.00,Sunday
7,1.375
628,12.76844513835674
629,14.642362513846846
630,13.688228173192211
631,20.926967748401108
766,0.0
829,0.0
892,0.0
955,21.5
1776,12843226.597033903
2,1, 1, 1, 0,16, 0.00,60.00,Sunday
7,1.0
628,12.684600371446692
629,14.509934029785823
630,13.533459689563294
631,20.80024367166638
766,0.0
829,0.0
892,0.0
955,21.5
1776,12887110.303752534
2,1, 1, 1, 0,17, 0.00,60.00,Sunday
7,0.375
628,12.601696894566214
629,14.351626809024014
630,13.348452556733818
631,20.801766104502725
766,0.0
829,0.0
892,0.0
955,21.5
1776,12878573.777184002
2,1, 1, 1, 0,18, 0.00,60.00,Sunday
7,-0.625
628,12.498365036877074
629,14.145555465909764
630,13.092050429572877
631,20.642209266856074
766,0.0
829,0.0
892,0.0
955,21.5
1776,12903102.925229467
2,1, 1, 1, 0,19, 0.00,60.00,Sunday
7,-1.625
628,12.36513293911769
629,13.92996154022249
630,12.82405593021254
631,20.42730847073272
766,0.0
829,0.0
892,0.0
955,21.5
1776,12939836.407566307
2,1, 1, 1, 0,20, 0.00,60.00,Sunday
7,-3.25
628,12.209482489457466
629,13.646792835691945
630,12.465132938563851
631,19.83648527679795
766,0.0
829,0.0
892,0.0
955,21.5
1776,13025578.835692815
2,1, 1, 1, 0,21, 0.00,60.00,Sunday
7,-4.625
628,11.993929120216187
629,13.36555604624323
630,12.09773838757463
631,18.752673513146856
766,0.0
829,0.0
892,0.0
955,21.5
1776,13241662.601259464
2,1, 1, 1, 0,22, 0.00,60.00,Sunday
7,-5.625
628,11.767014236026323
629,13.114113686099735
630,11.776850122163891
631,18.81024540517206
766,0.0
829,0.0
892,0.0
955,21.5
1776,13254621.032750748
2,1, 1, 1, 0,23, 0.00,60.00,Sunday
7,-6.625
628,11.547039901866777
629,12.85913129523991
630,11.450040255797767
631,18.183859267891137
766,0.0
829,0.0
892,0.0
955,21.5
1776,13327894.499896264
2,1, 1, 1, 0,24, 0.00,60.00,Sunday
7,-7.0
628,11.29717517790034
629,12.661540467225798
630,11.204806772705727
631,17.513109303114444
766,0.0
829,0.0
892,0.0
955,21.5
1776,13469187.037314622
End of Data
 Number of Records Written=         720
