Program Version,EnergyPlus, Version 9.6.0-f420c06a69, YMD=2022.04.11 11:58
1,5,Environment Title[],Latitude[deg],Longitude[deg],Time Zone[],Elevation[m]
2,8,Day of Simulation[],Month[],Day of Month[],DST Indicator[1=yes 0=no],Hour[],StartMinute[],EndMinute[],DayType
3,5,Cumulative Day of Simulation[],Month[],Day of Month[],DST Indicator[1=yes 0=no],DayType  ! When Daily Report Variables Requested
4,2,Cumulative Days of Simulation[],Month[]  ! When Monthly Report Variables Requested
5,1,Cumulative Days of Simulation[] ! When Run Period Report Variables Requested
6,1,Calendar Year of Simulation[] ! When Annual Report Variables Requested
7,1,Environment,Site Outdoor Air Drybulb Temperature [C] !Hourly
629,1,GARAGE ZONE,Zone Mean Air Temperature [C] !Hourly
630,1,LIVING ZONE,Zone Mean Air Temperature [C] !Hourly
631,1,UNFINISHED ATTIC ZONE,Zone Mean Air Temperature [C] !Hourly
766,1,GARAGE ZONE,Zone Thermostat Heating Setpoint Temperature [C] !Hourly
829,1,LIVING ZONE,Zone Thermostat Heating Setpoint Temperature [C] !Hourly
892,1,UNFINISHED ATTIC ZONE,Zone Thermostat Heating Setpoint Temperature [C] !Hourly
956,1,Heating:Electricity [J] !Hourly
End of Data Dictionary
1,RUN PERIOD 1,  39.74,-105.18,  -7.00,1829.00
2,1, 1, 1, 0, 1, 0.00,60.00,Sunday
7,-4.5
629,12.504446786061237
630,12.386189645994296
631,-6.000356770469463
766,0.0
829,21.5
892,0.0
956,4320000.0
2,1, 1, 1, 0, 2, 0.00,60.00,Sunday
7,-3.0
629,11.807435069574714
630,12.17096575579847
631,-5.60105935957738
766,0.0
829,21.5
892,0.0
956,4320000.0
2,1, 1, 1, 0, 3, 0.00,60.00,Sunday
7,-3.625
629,11.169347998180328
630,11.543612238900453
631,-5.444508707319064
766,0.0
829,21.5
892,0.0
956,4320000.0
2,1, 1, 1, 0, 4, 0.00,60.00,Sunday
7,-2.75
629,10.680452866475665
630,11.18967050912907
631,-5.188732213933564
766,0.0
829,21.5
892,0.0
956,4320000.0
2,1, 1, 1, 0, 5, 0.00,60.00,Sunday
7,-2.0
629,10.26065505796383
630,10.97203758131456
631,-4.381175737717577
766,0.0
829,21.5
892,0.0
956,4320000.0
2,1, 1, 1, 0, 6, 0.00,60.00,Sunday
7,-1.375
629,9.95032917217526
630,11.304543839177793
631,-3.6038539124518882
766,0.0
829,21.5
892,0.0
956,4320000.0
2,1, 1, 1, 0, 7, 0.00,60.00,Sunday
7,-1.0
629,9.633526054386792
630,12.22185055230726
631,-3.1866325847776156
766,0.0
829,21.5
892,0.0
956,4320000.0
2,1, 1, 1, 0, 8, 0.00,60.00,Sunday
7,-1.0
629,9.22222167264048
630,12.090573562837386
631,-2.6923904627748616
766,0.0
829,21.5
892,0.0
956,4320000.0
2,1, 1, 1, 0, 9, 0.00,60.00,Sunday
7,-0.375
629,8.926995025691983
630,11.360807767579143
631,-1.0861349143118402
766,0.0
829,21.5
892,0.0
956,4320000.0
2,1, 1, 1, 0,10, 0.00,60.00,Sunday
7,1.25
629,8.838412373135025
630,11.363453524983562
631,1.5597856300473103
766,0.0
829,21.5
892,0.0
956,4320000.0
2,1, 1, 1, 0,11, 0.00,60.00,Sunday
7,2.0
629,8.883252701250566
630,12.235546578338386
631,4.256293185345682
766,0.0
829,21.5
892,0.0
956,4320000.0
2,1, 1, 1, 0,12, 0.00,60.00,Sunday
7,1.375
629,9.072132812981495
630,12.844332288783006
631,6.81228243581325
766,0.0
829,21.5
892,0.0
956,4320000.0
2,1, 1, 1, 0,13, 0.00,60.00,Sunday
7,2.25
629,9.34268741952803
630,12.755999248384443
631,6.984603108764117
766,0.0
829,21.5
892,0.0
956,4320000.0
2,1, 1, 1, 0,14, 0.00,60.00,Sunday
7,2.375
629,9.396704017253349
630,12.535960796271905
631,6.39630260951229
766,0.0
829,21.5
892,0.0
956,4320000.0
2,1, 1, 1, 0,15, 0.00,60.00,Sunday
7,1.375
629,9.069431855805194
630,12.23720542009894
631,4.575418769339183
766,0.0
829,21.5
892,0.0
956,4320000.0
2,1, 1, 1, 0,16, 0.00,60.00,Sunday
7,1.0
629,8.758261164299627
630,12.115544966038925
631,3.116530489075973
766,0.0
829,21.5
892,0.0
956,4320000.0
2,1, 1, 1, 0,17, 0.00,60.00,Sunday
7,0.375
629,8.531184167976516
630,11.997594236867638
631,2.190204847309447
766,0.0
829,21.5
892,0.0
956,4320000.0
2,1, 1, 1, 0,18, 0.00,60.00,Sunday
7,-0.625
629,8.17296658467086
630,11.337932740899902
631,0.7892919672437432
766,0.0
829,21.5
892,0.0
956,4320000.0
2,1, 1, 1, 0,19, 0.00,60.00,Sunday
7,-1.625
629,7.727964728193989
630,10.76877689474248
631,-0.48429440995070927
766,0.0
829,21.5
892,0.0
956,4320000.0
2,1, 1, 1, 0,20, 0.00,60.00,Sunday
7,-3.25
629,7.064214837068665
630,9.920088815364053
631,-2.0267878199988907
766,0.0
829,21.5
892,0.0
956,4320000.0
2,1, 1, 1, 0,21, 0.00,60.00,Sunday
7,-4.625
629,6.381515779031546
630,9.241865701282702
631,-3.4478762613490597
766,0.0
829,21.5
892,0.0
956,4320000.0
2,1, 1, 1, 0,22, 0.00,60.00,Sunday
7,-5.625
629,5.980433212567819
630,8.870107324322037
631,-4.447950375974007
766,0.0
829,21.5
892,0.0
956,4320000.0
2,1, 1, 1, 0,23, 0.00,60.00,Sunday
7,-6.625
629,5.430528099983633
630,8.121364287039052
631,-5.606405881963873
766,0.0
829,21.5
892,0.0
956,4320000.0
2,1, 1, 1, 0,24, 0.00,60.00,Sunday
7,-7.0
629,4.8304691628898215
630,7.311964133964005
631,-6.472011097442409
766,0.0
829,21.5
892,0.0
956,4320000.0
End of Data
 Number of Records Written=         192
