Program Version,EnergyPlus, Version 9.6.0-f420c06a69, YMD=2022.04.07 17:18
1,5,Environment Title[],Latitude[deg],Longitude[deg],Time Zone[],Elevation[m]
2,8,Day of Simulation[],Month[],Day of Month[],DST Indicator[1=yes 0=no],Hour[],StartMinute[],EndMinute[],DayType
3,5,Cumulative Day of Simulation[],Month[],Day of Month[],DST Indicator[1=yes 0=no],DayType  ! When Daily Report Variables Requested
4,2,Cumulative Days of Simulation[],Month[]  ! When Monthly Report Variables Requested
5,1,Cumulative Days of Simulation[] ! When Run Period Report Variables Requested
6,1,Calendar Year of Simulation[] ! When Annual Report Variables Requested
7,1,Environment,Site Outdoor Air Drybulb Temperature [C] !Hourly
646,1,LIVING_UNIT1,Zone Mean Air Temperature [C] !Hourly
647,1,ATTIC_UNIT1,Zone Mean Air Temperature [C] !Hourly
807,1,LIVING_UNIT1,Zone Thermostat Heating Setpoint Temperature [C] !Hourly
870,1,ATTIC_UNIT1,Zone Thermostat Heating Setpoint Temperature [C] !Hourly
553,1,Heating:Electricity [J] !Hourly
End of Data Dictionary
1,DENVER-AURORA-BUCKLEY.AFB_CO_USA ANN HTG 99.6% CONDNS DB,  39.72,-104.75,  -7.00,1726.00
2,1,12,21, 0, 1, 0.00,60.00,WinterDesignDay
7,-17.900000000000002
646,18.07408870050382
647,-13.425648639217497
807,18.875
870,0.0
553,26693451.255197283
2,1,12,21, 0, 2, 0.00,60.00,WinterDesignDay
7,-17.900000000000002
646,18.071861467030942
647,-13.422040477999602
807,19.25
870,0.0
553,26693451.255197283
2,1,12,21, 0, 3, 0.00,60.00,WinterDesignDay
7,-17.900000000000002
646,18.062776186683976
647,-13.421994242945331
807,19.0
870,0.0
553,26693451.255197283
2,1,12,21, 0, 4, 0.00,60.00,WinterDesignDay
7,-17.900000000000002
646,18.05222114304941
647,-13.422859298978002
807,18.5
870,0.0
553,26693451.255197283
2,1,12,21, 0, 5, 0.00,60.00,WinterDesignDay
7,-17.900000000000002
646,18.055687027452795
647,-13.422981351064822
807,18.5
870,0.0
553,26693451.255197283
2,1,12,21, 0, 6, 0.00,60.00,WinterDesignDay
7,-17.900000000000002
646,18.10548605408267
647,-13.41863848417296
807,18.5
870,0.0
553,26693451.255197283
2,1,12,21, 0, 7, 0.00,60.00,WinterDesignDay
7,-17.900000000000002
646,17.81448933751886
647,-13.45196278197208
807,18.0
870,0.0
553,26362593.6757682
2,1,12,21, 0, 8, 0.00,60.00,WinterDesignDay
7,-17.900000000000002
646,17.538568103639236
647,-13.481485299378354
807,18.5
870,0.0
553,26693451.255197283
2,1,12,21, 0, 9, 0.00,60.00,WinterDesignDay
7,-17.900000000000002
646,17.286621634332718
647,-13.510560071301207
807,18.5
870,0.0
553,26693451.255197283
2,1,12,21, 0,10, 0.00,60.00,WinterDesignDay
7,-17.900000000000002
646,17.060367512738022
647,-13.542619069405015
807,18.5
870,0.0
553,26693451.255197283
2,1,12,21, 0,11, 0.00,60.00,WinterDesignDay
7,-17.900000000000002
646,17.17604305603146
647,-13.547691187429036
807,18.5
870,0.0
553,26693451.255197283
2,1,12,21, 0,12, 0.00,60.00,WinterDesignDay
7,-17.900000000000002
646,17.41032319696674
647,-13.515639538633346
807,18.5
870,0.0
553,26693451.255197283
2,1,12,21, 0,13, 0.00,60.00,WinterDesignDay
7,-17.900000000000002
646,17.09309614792493
647,-13.536301911721289
807,18.5
870,0.0
553,26693451.255197283
2,1,12,21, 0,14, 0.00,60.00,WinterDesignDay
7,-17.900000000000002
646,16.832094451302975
647,-13.57957812292459
807,20.5
870,0.0
553,26693451.255197283
2,1,12,21, 0,15, 0.00,60.00,WinterDesignDay
7,-17.900000000000002
646,17.010466646802428
647,-13.576778603691166
807,18.5
870,0.0
553,26693451.255197283
2,1,12,21, 0,16, 0.00,60.00,WinterDesignDay
7,-17.900000000000002
646,17.295150739807124
647,-13.538332339431735
807,18.75
870,0.0
553,26693451.255197283
2,1,12,21, 0,17, 0.00,60.00,WinterDesignDay
7,-17.900000000000002
646,17.486529005481557
647,-13.515166796147684
807,19.0
870,0.0
553,26693451.255197283
2,1,12,21, 0,18, 0.00,60.00,WinterDesignDay
7,-17.900000000000002
646,17.287728439881295
647,-13.523024756493642
807,19.5
870,0.0
553,26693451.255197283
2,1,12,21, 0,19, 0.00,60.00,WinterDesignDay
7,-17.900000000000002
646,17.39777281522309
647,-13.522133820423116
807,18.5
870,0.0
553,26693451.255197283
2,1,12,21, 0,20, 0.00,60.00,WinterDesignDay
7,-17.900000000000002
646,17.57849844119905
647,-13.50301123175102
807,18.5
870,0.0
553,26693451.255197283
2,1,12,21, 0,21, 0.00,60.00,WinterDesignDay
7,-17.900000000000002
646,18.155904801603636
647,-13.437277851932057
807,18.5
870,0.0
553,26693451.255197283
2,1,12,21, 0,22, 0.00,60.00,WinterDesignDay
7,-17.900000000000002
646,18.357604724833525
647,-13.394781068226811
807,18.5
870,0.0
553,26693451.255197283
2,1,12,21, 0,23, 0.00,60.00,WinterDesignDay
7,-17.900000000000002
646,17.889291321011424
647,-13.431960644623196
807,18.5
870,0.0
553,26693451.255197283
2,1,12,21, 0,24, 0.00,60.00,WinterDesignDay
7,-17.900000000000002
646,17.83699630716469
647,-13.456244703296463
807,18.5
870,0.0
553,26693451.255197283
1,DENVER-AURORA-BUCKLEY.AFB_CO_USA ANN CLG .4% CONDNS DB=>MWB,  39.72,-104.75,  -7.00,1726.00
2,1, 7,21, 0, 1, 0.00,60.00,SummerDesignDay
7,21.246
646,23.998750537219774
647,20.46850017473274
807,18.875
870,0.0
553,0.0
2,1, 7,21, 0, 2, 0.00,60.00,SummerDesignDay
7,20.530666666666665
646,23.999015222237315
647,19.733809479603575
807,19.25
870,0.0
553,0.0
2,1, 7,21, 0, 3, 0.00,60.00,SummerDesignDay
7,20.024999999999995
646,23.999153130617042
647,19.19635198142794
807,19.0
870,0.0
553,0.0
2,1, 7,21, 0, 4, 0.00,60.00,SummerDesignDay
7,19.581
646,23.99906844326222
647,18.745635525084438
807,18.5
870,0.0
553,0.0
2,1, 7,21, 0, 5, 0.00,60.00,SummerDesignDay
7,19.22333333333333
646,23.998226295586562
647,18.36930020109082
807,18.5
870,0.0
553,0.0
2,1, 7,21, 0, 6, 0.00,60.00,SummerDesignDay
7,19.272666666666666
646,24.000542431767787
647,18.61878880159356
807,18.5
870,0.0
553,0.0
2,1, 7,21, 0, 7, 0.00,60.00,SummerDesignDay
7,20.00033333333333
646,24.00029421372731
647,20.202531806773674
807,18.0
870,0.0
553,0.0
2,1, 7,21, 0, 8, 0.00,60.00,SummerDesignDay
7,21.899666666666665
646,23.99998902776392
647,23.60135740018185
807,18.500000000000004
870,0.0
553,0.0
2,1, 7,21, 0, 9, 0.00,60.00,SummerDesignDay
7,24.588333333333328
646,24.000009817517324
647,27.915628232761787
807,18.500000000000004
870,0.0
553,0.0
2,1, 7,21, 0,10, 0.00,60.00,SummerDesignDay
7,27.227666666666664
646,24.000028176474633
647,32.102918541581076
807,18.500000000000004
870,0.0
553,0.0
2,1, 7,21, 0,11, 0.00,60.00,SummerDesignDay
7,29.570999999999998
646,23.999961063143033
647,35.87014557645808
807,18.5
870,0.0
553,0.0
2,1, 7,21, 0,12, 0.00,60.00,SummerDesignDay
7,31.35933333333333
646,23.999997164522497
647,38.6064301980378
807,18.5
870,0.0
553,0.0
2,1, 7,21, 0,13, 0.00,60.00,SummerDesignDay
7,32.666666666666664
646,24.000444414205244
647,39.99807418909047
807,18.5
870,0.0
553,0.0
2,1, 7,21, 0,14, 0.00,60.00,SummerDesignDay
7,33.59166666666667
646,24.073839698425385
647,40.617467972400654
807,20.5
870,0.0
553,0.0
2,1, 7,21, 0,15, 0.00,60.00,SummerDesignDay
7,33.9
646,24.423414643581484
647,40.37159220130081
807,18.5
870,0.0
553,0.0
2,1, 7,21, 0,16, 0.00,60.00,SummerDesignDay
7,33.382
646,24.063978114708323
647,38.938205981443474
807,18.75
870,0.0
553,0.0
2,1, 7,21, 0,17, 0.00,60.00,SummerDesignDay
7,32.321333333333335
646,24.67707224042239
647,36.495910693237555
807,19.0
870,0.0
553,0.0
2,1, 7,21, 0,18, 0.00,60.00,SummerDesignDay
7,30.96466666666666
646,24.707007878500864
647,33.422446817237514
807,19.5
870,0.0
553,0.0
2,1, 7,21, 0,19, 0.00,60.00,SummerDesignDay
7,29.052999999999997
646,24.22285519843413
647,29.898013027852784
807,18.5
870,0.0
553,0.0
2,1, 7,21, 0,20, 0.00,60.00,SummerDesignDay
7,27.17833333333333
646,23.999962448785254
647,27.017877947843775
807,18.5
870,0.0
553,0.0
2,1, 7,21, 0,21, 0.00,60.00,SummerDesignDay
7,25.723
646,23.99947269518877
647,24.91543388580563
807,18.5
870,0.0
553,0.0
2,1, 7,21, 0,22, 0.00,60.00,SummerDesignDay
7,24.391000000000002
646,23.999150395924428
647,23.526853244871777
807,18.5
870,0.0
553,0.0
2,1, 7,21, 0,23, 0.00,60.00,SummerDesignDay
7,23.231666666666666
646,23.99909959017191
647,22.392630226174607
807,18.5
870,0.0
553,0.0
2,1, 7,21, 0,24, 0.00,60.00,SummerDesignDay
7,22.195666666666668
646,23.998525478598935
647,21.462830502339955
807,18.5
870,0.0
553,0.0
1,ANNUAL,  39.72,-104.75,  -7.00,1726.00
2,1, 1, 1, 0, 1, 0.00,60.00,Sunday
7,1.75
646,18.872435633225418
647,1.9212411664623616
807,18.875
870,0.0
553,4211405.576403638
2,1, 1, 1, 0, 2, 0.00,60.00,Sunday
7,0.6666666666666666
646,19.246523950515467
647,2.4386720971652216
807,19.25
870,0.0
553,4917230.208610447
2,1, 1, 1, 0, 3, 0.00,60.00,Sunday
7,-2.1666666666666665
646,19.001708905194263
647,0.30462410484779817
807,19.0
870,0.0
553,7246680.87757297
2,1, 1, 1, 0, 4, 0.00,60.00,Sunday
7,-2.4166666666666665
646,18.49972889490272
647,-0.05218263042384665
807,18.5
870,0.0
553,6512150.028703413
2,1, 1, 1, 0, 5, 0.00,60.00,Sunday
7,-3.75
646,18.499784140105223
647,0.27807978784521337
807,18.5
870,0.0
553,8040122.523400807
2,1, 1, 1, 0, 6, 0.00,60.00,Sunday
7,-3.8333333333333335
646,18.500026222991547
647,-0.5894554617425435
807,18.5
870,0.0
553,8576840.447042422
2,1, 1, 1, 0, 7, 0.00,60.00,Sunday
7,-3.5833333333333335
646,18.00109176265095
647,-1.2478263518504804
807,18.0
870,0.0
553,9093462.86301805
2,1, 1, 1, 0, 8, 0.00,60.00,Sunday
7,-4.0
646,18.495290657851225
647,-1.5530212015958693
807,18.5
870,0.0
553,12168349.849807525
2,1, 1, 1, 0, 9, 0.00,60.00,Sunday
7,-0.5
646,18.498682276717048
647,1.1814047276289068
807,18.500000000000004
870,0.0
553,5364942.918776984
2,1, 1, 1, 0,10, 0.00,60.00,Sunday
7,6.083333333333333
646,18.624143463510624
647,6.808043008834772
807,18.5
870,0.0
553,834679.8320643224
2,1, 1, 1, 0,11, 0.00,60.00,Sunday
7,6.083333333333333
646,18.77313396845906
647,8.944808210726121
807,18.500000000000004
870,0.0
553,985812.648502119
2,1, 1, 1, 0,12, 0.00,60.00,Sunday
7,4.0
646,18.26909589708585
647,8.293334289735173
807,18.5
870,0.0
553,919423.0649426681
2,1, 1, 1, 0,13, 0.00,60.00,Sunday
7,4.0
646,18.76227972702322
647,8.896919651508448
807,18.5
870,0.0
553,933878.77195872
2,1, 1, 1, 0,14, 0.00,60.00,Sunday
7,5.166666666666667
646,20.471872018730036
647,8.585576966004751
807,20.5
870,0.0
553,2466959.2293361146
2,1, 1, 1, 0,15, 0.00,60.00,Sunday
7,5.883333333333333
646,20.34403227501446
647,7.794724767660629
807,18.5
870,0.0
553,720000.0
2,1, 1, 1, 0,16, 0.00,60.00,Sunday
7,5.333333333333333
646,19.775289510560803
647,6.950801993287199
807,18.75
870,0.0
553,720000.0
2,1, 1, 1, 0,17, 0.00,60.00,Sunday
7,3.8333333333333335
646,19.502391500508235
647,5.347666375455431
807,19.0
870,0.0
553,720000.0
2,1, 1, 1, 0,18, 0.00,60.00,Sunday
7,0.6666666666666666
646,19.49881839167118
647,2.8689246891050764
807,19.500000000000007
870,0.0
553,2740940.501999005
2,1, 1, 1, 0,19, 0.00,60.00,Sunday
7,-1.0
646,18.507299812182083
647,0.5074352873463513
807,18.5
870,0.0
553,3071386.0233551874
2,1, 1, 1, 0,20, 0.00,60.00,Sunday
7,-1.0
646,18.498143303720866
647,0.5193172574744388
807,18.5
870,0.0
553,4283034.646272673
2,1, 1, 1, 0,21, 0.00,60.00,Sunday
7,-1.0
646,18.500960440613586
647,0.09975728462673451
807,18.5
870,0.0
553,3438263.1490559755
2,1, 1, 1, 0,22, 0.00,60.00,Sunday
7,-1.0
646,18.499211372932475
647,-0.08200104128057491
807,18.5
870,0.0
553,3473917.704170689
2,1, 1, 1, 0,23, 0.00,60.00,Sunday
7,-0.4166666666666667
646,18.500712125666368
647,0.5969300548414463
807,18.5
870,0.0
553,4710191.717549267
2,1, 1, 1, 0,24, 0.00,60.00,Sunday
7,0.0
646,18.500581367504196
647,1.5143881683299354
807,18.5
870,0.0
553,5366548.492446097
End of Data
 Number of Records Written=         432
