Program Version,EnergyPlus, Version 9.6.0-f420c06a69, YMD=2022.04.13 21:20
1,5,Environment Title[],Latitude[deg],Longitude[deg],Time Zone[],Elevation[m]
2,8,Day of Simulation[],Month[],Day of Month[],DST Indicator[1=yes 0=no],Hour[],StartMinute[],EndMinute[],DayType
3,5,Cumulative Day of Simulation[],Month[],Day of Month[],DST Indicator[1=yes 0=no],DayType  ! When Daily Report Variables Requested
4,2,Cumulative Days of Simulation[],Month[]  ! When Monthly Report Variables Requested
5,1,Cumulative Days of Simulation[] ! When Run Period Report Variables Requested
6,1,Calendar Year of Simulation[] ! When Annual Report Variables Requested
7,1,Environment,Site Outdoor Air Drybulb Temperature [C] !Hourly
629,1,GARAGE ZONE,Zone Mean Air Temperature [C] !Hourly
630,1,LIVING ZONE,Zone Mean Air Temperature [C] !Hourly
631,1,UNFINISHED ATTIC ZONE,Zone Mean Air Temperature [C] !Hourly
766,1,GARAGE ZONE,Zone Thermostat Heating Setpoint Temperature [C] !Hourly
829,1,LIVING ZONE,Zone Thermostat Heating Setpoint Temperature [C] !Hourly
892,1,UNFINISHED ATTIC ZONE,Zone Thermostat Heating Setpoint Temperature [C] !Hourly
956,1,Heating:Electricity [J] !Hourly
End of Data Dictionary
1,RUN PERIOD 1,  39.72,-104.75,  -7.00,1726.00
2,1, 1, 1, 0, 1, 0.00,60.00,Sunday
7,1.875
629,15.00016984222912
630,18.506655556998446
631,-1.92386109786637
766,0.0
829,18.5
892,0.0
956,5938359.99961669
2,1, 1, 1, 0, 2, 0.00,60.00,Sunday
7,0.5
629,13.86358999885712
630,19.526413351989554
631,-1.2559058960883362
766,0.0
829,23.5
892,0.0
956,14400000.0
2,1, 1, 1, 0, 3, 0.00,60.00,Sunday
7,-2.25
629,12.903033539047907
630,19.140764137909237
631,-1.8600932508448214
766,0.0
829,22.5
892,0.0
956,14400000.0
2,1, 1, 1, 0, 4, 0.00,60.00,Sunday
7,-2.375
629,12.264005497145769
630,18.844253513443164
631,-2.6569339315292066
766,0.0
829,23.5
892,0.0
956,14400000.0
2,1, 1, 1, 0, 5, 0.00,60.00,Sunday
7,-3.875
629,11.67281885874706
630,18.476101213890704
631,-3.491639438408362
766,0.0
829,22.5
892,0.0
956,14400000.0
2,1, 1, 1, 0, 6, 0.00,60.00,Sunday
7,-3.75
629,11.132155048282044
630,18.561401986559872
631,-4.520997173297988
766,0.0
829,22.5
892,0.0
956,14400000.0
2,1, 1, 1, 0, 7, 0.00,60.00,Sunday
7,-3.625
629,10.542159831349153
630,18.285765621738776
631,-5.019046057977698
766,0.0
829,18.5
892,0.0
956,10955659.513114583
2,1, 1, 1, 0, 8, 0.00,60.00,Sunday
7,-4.0
629,9.840534412598695
630,18.29565126736296
631,-5.203268220822165
766,0.0
829,20.75
892,0.0
956,14400000.0
2,1, 1, 1, 0, 9, 0.00,60.00,Sunday
7,-0.25
629,9.62844510893952
630,18.192293314523752
631,-3.358778850014906
766,0.0
829,23.5
892,0.0
956,14400000.0
2,1, 1, 1, 0,10, 0.00,60.00,Sunday
7,6.375
629,10.03269933388561
630,19.267690533253745
631,2.994630519548225
766,0.0
829,22.5
892,0.0
956,14400000.000000002
2,1, 1, 1, 0,11, 0.00,60.00,Sunday
7,5.875
629,10.724722010396004
630,20.39584584085492
631,8.840258907255228
766,0.0
829,23.5
892,0.0
956,14400000.0
2,1, 1, 1, 0,12, 0.00,60.00,Sunday
7,4.0
629,11.505432466921775
630,18.67915300693044
631,11.641447310198021
766,0.0
829,18.5
892,0.0
956,2329300.312966141
2,1, 1, 1, 0,13, 0.00,60.00,Sunday
7,4.0
629,12.750832535039008
630,18.44613067132209
631,13.299241496666465
766,0.0
829,18.5
892,0.0
956,3492735.4096280923
2,1, 1, 1, 0,14, 0.00,60.00,Sunday
7,5.25
629,13.896127040077152
630,18.431110928032417
631,13.823606926559172
766,0.0
829,18.5
892,0.0
956,3420212.5772059476
2,1, 1, 1, 0,15, 0.00,60.00,Sunday
7,5.875000000000001
629,14.640862288296127
630,18.462771702573583
631,13.371972160098025
766,0.0
829,18.5
892,0.0
956,1909487.618201631
2,1, 1, 1, 0,16, 0.00,60.00,Sunday
7,5.3
629,14.931615315201775
630,18.46587658184352
631,12.263707920970843
766,0.0
829,18.5
892,0.0
956,2162529.341863171
2,1, 1, 1, 0,17, 0.00,60.00,Sunday
7,3.75
629,14.838779243523847
630,18.437783813034187
631,9.87417517122546
766,0.0
829,18.5
892,0.0
956,4579991.091659804
2,1, 1, 1, 0,18, 0.00,60.00,Sunday
7,0.5
629,13.738460190397612
630,18.418778438856755
631,5.626729080376467
766,0.0
829,18.5
892,0.0
956,8262782.857047095
2,1, 1, 1, 0,19, 0.00,60.00,Sunday
7,-1.0
629,12.435153292721408
630,19.459446947759503
631,2.155127869384402
766,0.0
829,22.5
892,0.0
956,14400000.0
2,1, 1, 1, 0,20, 0.00,60.00,Sunday
7,-1.0
629,11.535504568692922
630,19.542128193666883
631,-0.16939021181376396
766,0.0
829,22.5
892,0.0
956,14400000.0
2,1, 1, 1, 0,21, 0.00,60.00,Sunday
7,-1.0
629,10.865464769044708
630,19.368804459611894
631,-1.5883840008871568
766,0.0
829,22.5
892,0.0
956,14400000.0
2,1, 1, 1, 0,22, 0.00,60.00,Sunday
7,-1.0
629,10.396565497904039
630,19.255782116371
631,-2.3824791295206484
766,0.0
829,22.5
892,0.0
956,14400000.0
2,1, 1, 1, 0,23, 0.00,60.00,Sunday
7,-0.375
629,10.08048969444159
630,19.07473007168119
631,-2.5969852357903473
766,0.0
829,22.5
892,0.0
956,14400000.0
2,1, 1, 1, 0,24, 0.00,60.00,Sunday
7,0.0
629,9.875955867349695
630,18.986160037242662
631,-2.54692353297974
766,0.0
829,22.0
892,0.0
956,14400000.0
End of Data
 Number of Records Written=         192
