Program Version,EnergyPlus, Version 9.6.0-f420c06a69, YMD=2022.04.08 13:42
1,5,Environment Title[],Latitude[deg],Longitude[deg],Time Zone[],Elevation[m]
2,8,Day of Simulation[],Month[],Day of Month[],DST Indicator[1=yes 0=no],Hour[],StartMinute[],EndMinute[],DayType
3,5,Cumulative Day of Simulation[],Month[],Day of Month[],DST Indicator[1=yes 0=no],DayType  ! When Daily Report Variables Requested
4,2,Cumulative Days of Simulation[],Month[]  ! When Monthly Report Variables Requested
5,1,Cumulative Days of Simulation[] ! When Run Period Report Variables Requested
6,1,Calendar Year of Simulation[] ! When Annual Report Variables Requested
7,1,Environment,Site Outdoor Air Drybulb Temperature [C] !Hourly
577,1,CORRIDOR ZONE,Zone Mean Air Temperature [C] !Hourly
578,1,LIVING ZONE,Zone Mean Air Temperature [C] !Hourly
713,1,CORRIDOR ZONE,Zone Thermostat Heating Setpoint Temperature [C] !Hourly
776,1,LIVING ZONE,Zone Thermostat Heating Setpoint Temperature [C] !Hourly
865,1,Heating:NaturalGas [J] !Hourly
End of Data Dictionary
1,RUN PERIOD 1,  39.74,-105.18,  -7.00,1829.00
2,1, 1, 1, 0, 1, 0.00,60.00,Monday
7,-4.5
577,-3.42590390326517
578,21.0
713,0.0
776,21.0
865,7053678.782712592
2,1, 1, 1, 0, 2, 0.00,60.00,Monday
7,-3.0
577,-3.964148656373407
578,21.0
713,0.0
776,21.0
865,6294286.925296189
2,1, 1, 1, 0, 3, 0.00,60.00,Monday
7,-3.625
577,-4.334403015520411
578,21.0
713,0.0
776,21.0
865,6610726.1954395585
2,1, 1, 1, 0, 4, 0.00,60.00,Monday
7,-2.75
577,-4.673527230572919
578,21.0
713,0.0
776,21.0
865,6373986.025341553
2,1, 1, 1, 0, 5, 0.00,60.00,Monday
7,-2.0
577,-4.800030278402366
578,17.403178853236547
713,0.0
776,12.0
865,0.0
2,1, 1, 1, 0, 6, 0.00,60.00,Monday
7,-1.375
577,-4.702294364027116
578,20.87035573938487
713,0.0
776,21.0
865,8779991.94069907
2,1, 1, 1, 0, 7, 0.00,60.00,Monday
7,-1.0
577,-4.605509496134639
578,20.99999993634852
713,0.0
776,21.0
865,6960519.181007352
2,1, 1, 1, 0, 8, 0.00,60.00,Monday
7,-1.0
577,-4.469455893338372
578,20.99999999999942
713,0.0
776,21.0
865,6273494.248906921
2,1, 1, 1, 0, 9, 0.00,60.00,Monday
7,-0.375
577,-3.9710290329182296
578,21.0
713,0.0
776,21.0
865,2811214.8115486726
2,1, 1, 1, 0,10, 0.00,60.00,Monday
7,1.25
577,-2.921442192366529
578,21.0
713,0.0
776,21.0
865,3144702.3391373837
2,1, 1, 1, 0,11, 0.00,60.00,Monday
7,2.0
577,-1.5098795245913033
578,21.000001150018896
713,0.0
776,21.0
865,1429581.4669243293
2,1, 1, 1, 0,12, 0.00,60.00,Monday
7,1.375
577,0.7178873471107012
578,21.000001486805395
713,0.0
776,21.0
865,2320372.975174916
2,1, 1, 1, 0,13, 0.00,60.00,Monday
7,2.25
577,2.028102658271399
578,21.000000000979202
713,0.0
776,21.0
865,2805180.666298504
2,1, 1, 1, 0,14, 0.00,60.00,Monday
7,2.375
577,2.8140637362161915
578,21.0
713,0.0
776,21.0
865,3892471.1388109424
2,1, 1, 1, 0,15, 0.00,60.00,Monday
7,1.375
577,3.0766175875168917
578,21.0
713,0.0
776,21.0
865,4870588.813481158
2,1, 1, 1, 0,16, 0.00,60.00,Monday
7,1.0
577,2.884232594318667
578,21.0
713,0.0
776,21.0
865,4930009.606525717
2,1, 1, 1, 0,17, 0.00,60.00,Monday
7,0.375
577,2.5874231399699923
578,21.0
713,0.0
776,21.0
865,7411181.354266444
2,1, 1, 1, 0,18, 0.00,60.00,Monday
7,-0.625
577,2.083038951354015
578,21.0
713,0.0
776,21.0
865,5240925.998958918
2,1, 1, 1, 0,19, 0.00,60.00,Monday
7,-1.625
577,1.4700144272000106
578,21.0
713,0.0
776,21.0
865,5706037.632542278
2,1, 1, 1, 0,20, 0.00,60.00,Monday
7,-3.25
577,0.7847857643589762
578,21.0
713,0.0
776,21.0
865,6926181.227814847
2,1, 1, 1, 0,21, 0.00,60.00,Monday
7,-4.625
577,-0.031349604898056174
578,21.0
713,0.0
776,21.0
865,7329058.849980382
2,1, 1, 1, 0,22, 0.00,60.00,Monday
7,-5.625
577,-0.9059984516442223
578,21.0
713,0.0
776,21.0
865,7263509.098967931
2,1, 1, 1, 0,23, 0.00,60.00,Monday
7,-6.625
577,-1.7966835835729178
578,21.0
713,0.0
776,21.0
865,8094908.387863898
2,1, 1, 1, 0,24, 0.00,60.00,Monday
7,-7.0
577,-2.679883457323
578,21.0
713,0.0
776,21.0
865,8716257.316246562
End of Data
 Number of Records Written=         144
