Program Version,EnergyPlus, Version 9.6.0-f420c06a69, YMD=2022.04.09 20:59
1,5,Environment Title[],Latitude[deg],Longitude[deg],Time Zone[],Elevation[m]
2,8,Day of Simulation[],Month[],Day of Month[],DST Indicator[1=yes 0=no],Hour[],StartMinute[],EndMinute[],DayType
3,5,Cumulative Day of Simulation[],Month[],Day of Month[],DST Indicator[1=yes 0=no],DayType  ! When Daily Report Variables Requested
4,2,Cumulative Days of Simulation[],Month[]  ! When Monthly Report Variables Requested
5,1,Cumulative Days of Simulation[] ! When Run Period Report Variables Requested
6,1,Calendar Year of Simulation[] ! When Annual Report Variables Requested
7,1,Environment,Site Outdoor Air Drybulb Temperature [C] !Hourly
530,1,CORRIDOR ZONE,Zone Mean Air Temperature [C] !Hourly
531,1,LIVING ZONE,Zone Mean Air Temperature [C] !Hourly
532,1,UNFINISHED BASEMENT CORRIDOR ZONE,Zone Mean Air Temperature [C] !Hourly
533,1,UNFINISHED BASEMENT ZONE,Zone Mean Air Temperature [C] !Hourly
668,1,CORRIDOR ZONE,Zone Thermostat Heating Setpoint Temperature [C] !Hourly
731,1,LIVING ZONE,Zone Thermostat Heating Setpoint Temperature [C] !Hourly
794,1,UNFINISHED BASEMENT CORRIDOR ZONE,Zone Thermostat Heating Setpoint Temperature [C] !Hourly
857,1,UNFINISHED BASEMENT ZONE,Zone Thermostat Heating Setpoint Temperature [C] !Hourly
946,1,Heating:Electricity [J] !Hourly
End of Data Dictionary
1,RUN PERIOD 1,  39.74,-105.18,  -7.00,1829.00
2,1, 1, 1, 0, 1, 0.00,60.00,Sunday
7,-4.5
530,3.964140375267334
531,21.5
532,18.151570024438517
533,19.41500766953542
668,0.0
731,21.5
794,0.0
857,0.0
946,10649840.677420385
2,1, 1, 1, 0, 2, 0.00,60.00,Sunday
7,-3.0
530,3.6463004993702803
531,21.5
532,17.946290315717622
533,19.269754635753777
668,0.0
731,21.5
794,0.0
857,0.0
946,9822815.333803382
2,1, 1, 1, 0, 3, 0.00,60.00,Sunday
7,-3.625
530,3.4752365946923147
531,21.5
532,17.75657914694334
533,19.118545965095503
668,0.0
731,21.5
794,0.0
857,0.0
946,10139769.364166707
2,1, 1, 1, 0, 4, 0.00,60.00,Sunday
7,-2.75
530,3.2809360109598833
531,21.5
532,17.597506937183816
533,18.98878956990631
668,0.0
731,21.5
794,0.0
857,0.0
946,9853673.545133378
2,1, 1, 1, 0, 5, 0.00,60.00,Sunday
7,-2.0
530,3.270040522639522
531,21.5
532,17.454314136491305
533,18.901416961165786
668,0.0
731,21.5
794,0.0
857,0.0
946,8379454.87812718
2,1, 1, 1, 0, 6, 0.00,60.00,Sunday
7,-1.375
530,3.405157088700776
531,21.5
532,17.325993156303753
533,18.83010794505107
668,0.0
731,21.5
794,0.0
857,0.0
946,8029197.805520588
2,1, 1, 1, 0, 7, 0.00,60.00,Sunday
7,-1.0
530,3.501827637399857
531,21.5
532,17.212538678816863
533,18.72815088322924
668,0.0
731,21.5
794,0.0
857,0.0
946,7388256.155322398
2,1, 1, 1, 0, 8, 0.00,60.00,Sunday
7,-1.0
530,3.6457753041744434
531,21.5
532,17.1043071875104
533,18.620813588916818
668,0.0
731,21.5
794,0.0
857,0.0
946,9151620.45110187
2,1, 1, 1, 0, 9, 0.00,60.00,Sunday
7,-0.375
530,4.216324324883727
531,21.5
532,17.01186455552829
533,18.544388061162742
668,0.0
731,21.5
794,0.0
857,0.0
946,8159703.3967742305
2,1, 1, 1, 0,10, 0.00,60.00,Sunday
7,1.25
530,5.149772448308159
531,21.5
532,16.959230797161275
533,18.500558970654026
668,0.0
731,21.5
794,0.0
857,0.0
946,7241110.334509865
2,1, 1, 1, 0,11, 0.00,60.00,Sunday
7,2.0
530,6.2725647405828
531,21.5
532,16.936785133487223
533,18.461165208999365
668,0.0
731,21.5
794,0.0
857,0.0
946,6346843.119100862
2,1, 1, 1, 0,12, 0.00,60.00,Sunday
7,1.375
530,8.073497057455214
531,21.5
532,16.948574559932617
533,18.403823636923605
668,0.0
731,21.5
794,0.0
857,0.0
946,6901780.029559873
2,1, 1, 1, 0,13, 0.00,60.00,Sunday
7,2.25
530,9.00774032211947
531,21.5
532,17.00082535283762
533,18.39266647773808
668,0.0
731,21.5
794,0.0
857,0.0
946,6424088.397097606
2,1, 1, 1, 0,14, 0.00,60.00,Sunday
7,2.375
530,9.526078490837081
531,21.5
532,17.02772417770136
533,18.34939656094074
668,0.0
731,21.5
794,0.0
857,0.0
946,6974882.85168395
2,1, 1, 1, 0,15, 0.00,60.00,Sunday
7,1.375
530,9.526084224424348
531,21.5
532,17.01786811098578
533,18.298021956512194
668,0.0
731,21.5
794,0.0
857,0.0
946,7838621.541529696
2,1, 1, 1, 0,16, 0.00,60.00,Sunday
7,1.0
530,9.025608702493653
531,21.5
532,16.978526109946287
533,18.2446987805701
668,0.0
731,21.5
794,0.0
857,0.0
946,7567755.125420422
2,1, 1, 1, 0,17, 0.00,60.00,Sunday
7,0.375
530,8.581720446683587
531,21.5
532,16.90976738237706
533,18.18663435111433
668,0.0
731,21.5
794,0.0
857,0.0
946,7233678.201018658
2,1, 1, 1, 0,18, 0.00,60.00,Sunday
7,-0.625
530,7.990101641899324
531,21.5
532,16.822160630273164
533,18.12047571531329
668,0.0
731,21.5
794,0.0
857,0.0
946,9713703.547870424
2,1, 1, 1, 0,19, 0.00,60.00,Sunday
7,-1.625
530,7.3589131665885255
531,21.5
532,16.719658353074056
533,18.04608992054195
668,0.0
731,21.5
794,0.0
857,0.0
946,8428536.63780106
2,1, 1, 1, 0,20, 0.00,60.00,Sunday
7,-3.25
530,6.713932828519878
531,21.5
532,16.60159843356472
533,17.960068867079595
668,0.0
731,21.5
794,0.0
857,0.0
946,10509151.436503088
2,1, 1, 1, 0,21, 0.00,60.00,Sunday
7,-4.625
530,5.983252983239406
531,21.5
532,16.474983571313214
533,17.866449823557552
668,0.0
731,21.5
794,0.0
857,0.0
946,10961914.654677276
2,1, 1, 1, 0,22, 0.00,60.00,Sunday
7,-5.625
530,5.250933526926741
531,21.5
532,16.341965310377926
533,17.77378525113445
668,0.0
731,21.5
794,0.0
857,0.0
946,10681574.135059547
2,1, 1, 1, 0,23, 0.00,60.00,Sunday
7,-6.625
530,4.54646799945406
531,21.5
532,16.2024588530604
533,17.684753518984014
668,0.0
731,21.5
794,0.0
857,0.0
946,12389408.185688706
2,1, 1, 1, 0,24, 0.00,60.00,Sunday
7,-7.0
530,3.843672576146583
531,21.5
532,16.063269839187946
533,17.597797953529454
668,0.0
731,21.5
794,0.0
857,0.0
946,13811363.588198408
End of Data
 Number of Records Written=         240
