Program Version,EnergyPlus, Version 9.6.0-f420c06a69, YMD=2022.04.09 21:08
1,5,Environment Title[],Latitude[deg],Longitude[deg],Time Zone[],Elevation[m]
2,8,Day of Simulation[],Month[],Day of Month[],DST Indicator[1=yes 0=no],Hour[],StartMinute[],EndMinute[],DayType
3,5,Cumulative Day of Simulation[],Month[],Day of Month[],DST Indicator[1=yes 0=no],DayType  ! When Daily Report Variables Requested
4,2,Cumulative Days of Simulation[],Month[]  ! When Monthly Report Variables Requested
5,1,Cumulative Days of Simulation[] ! When Run Period Report Variables Requested
6,1,Calendar Year of Simulation[] ! When Annual Report Variables Requested
7,1,Environment,Site Outdoor Air Drybulb Temperature [C] !Hourly
798,1,CRAWL ZONE,Zone Mean Air Temperature [C] !Hourly
800,1,GARAGE ZONE,Zone Mean Air Temperature [C] !Hourly
801,1,LIVING ZONE,Zone Mean Air Temperature [C] !Hourly
803,1,RES DS RES AC ASYS RET AIR ZONE,Zone Mean Air Temperature [C] !Hourly
804,1,RES DS RES FUR GAS ASYS RET AIR ZONE,Zone Mean Air Temperature [C] !Hourly
805,1,UNFINISHED ATTIC ZONE,Zone Mean Air Temperature [C] !Hourly
941,1,CRAWL ZONE,Zone Thermostat Heating Setpoint Temperature [C] !Hourly
1004,1,GARAGE ZONE,Zone Thermostat Heating Setpoint Temperature [C] !Hourly
1067,1,LIVING ZONE,Zone Thermostat Heating Setpoint Temperature [C] !Hourly
1130,1,RES DS RES AC ASYS RET AIR ZONE,Zone Thermostat Heating Setpoint Temperature [C] !Hourly
1193,1,RES DS RES FUR GAS ASYS RET AIR ZONE,Zone Thermostat Heating Setpoint Temperature [C] !Hourly
1256,1,UNFINISHED ATTIC ZONE,Zone Thermostat Heating Setpoint Temperature [C] !Hourly
1345,1,Heating:NaturalGas [J] !Hourly
End of Data Dictionary
1,RUN PERIOD 1,  39.74,-105.18,  -7.00,1829.00
2,1, 1, 1, 0, 1, 0.00,60.00,Sunday
7,-4.5
798,18.76279071876858
800,7.074913395031765
801,21.50000300625869
803,23.0
804,21.13919435585269
805,-5.548985254648604
941,0.0
1004,0.0
1067,21.5
1130,0.0
1193,0.0
1256,0.0
1345,19340538.074578345
2,1, 1, 1, 0, 2, 0.00,60.00,Sunday
7,-3.0
798,18.599563904241897
800,7.2633624362283555
801,21.49999909336832
803,23.0
804,21.17176265103884
805,-5.146853102363953
941,0.0
1004,0.0
1067,21.5
1130,0.0
1193,0.0
1256,0.0
1345,16733542.828689078
2,1, 1, 1, 0, 3, 0.00,60.00,Sunday
7,-3.625
798,18.13945576625292
800,6.923418219838642
801,21.4999999992222
803,23.0
804,21.15349639267617
805,-4.998975421587256
941,0.0
1004,0.0
1067,21.5
1130,0.0
1193,0.0
1256,0.0
1345,16955397.25299721
2,1, 1, 1, 0, 4, 0.00,60.00,Sunday
7,-2.75
798,18.204659206221557
800,6.70406625416403
801,21.499999999999957
803,22.999999999999996
804,21.13537500204734
805,-4.7572233373029125
941,0.0
1004,0.0
1067,21.5
1130,0.0
1193,0.0
1256,0.0
1345,16964331.079684105
2,1, 1, 1, 0, 5, 0.00,60.00,Sunday
7,-2.0
798,18.102429665638297
800,6.599750416570853
801,21.5
803,23.0
804,21.131453546343344
805,-4.032512048071877
941,0.0
1004,0.0
1067,21.5
1130,0.0
1193,0.0
1256,0.0
1345,16698581.188597355
2,1, 1, 1, 0, 6, 0.00,60.00,Sunday
7,-1.375
798,18.11285016975478
800,6.605201563071491
801,21.5
803,23.0
804,21.124077114361583
805,-3.266668957987826
941,0.0
1004,0.0
1067,21.5
1130,0.0
1193,0.0
1256,0.0
1345,16533600.811320832
2,1, 1, 1, 0, 7, 0.00,60.00,Sunday
7,-1.0
798,17.99046942861967
800,6.612730148635903
801,21.5
803,23.0
804,21.119270819747754
805,-2.7890985956353056
941,0.0
1004,0.0
1067,21.5
1130,0.0
1193,0.0
1256,0.0
1345,16315684.564980157
2,1, 1, 1, 0, 8, 0.00,60.00,Sunday
7,-1.0
798,17.768804049062517
800,6.526733652136896
801,21.5
803,23.0
804,21.102704520225625
805,-2.268729590133492
941,0.0
1004,0.0
1067,21.5
1130,0.0
1193,0.0
1256,0.0
1345,15012708.388738368
2,1, 1, 1, 0, 9, 0.00,60.00,Sunday
7,-0.375
798,17.317276797102707
800,6.944549471005505
801,21.500004507531255
803,23.0
804,21.067018709997605
805,-0.21828746179906838
941,0.0
1004,0.0
1067,21.5
1130,0.0
1193,0.0
1256,0.0
1345,12742220.966575872
2,1, 1, 1, 0,10, 0.00,60.00,Sunday
7,1.25
798,17.172846891736633
800,7.8300192407093165
801,21.50000933575446
803,23.0
804,21.035609175233255
805,2.752018521481004
941,0.0
1004,0.0
1067,21.5
1130,0.0
1193,0.0
1256,0.0
1345,11528655.760015815
2,1, 1, 1, 0,11, 0.00,60.00,Sunday
7,2.0
798,16.8892091918463
800,8.515034800626776
801,21.500005157127937
803,23.0
804,21.01136223370547
805,5.115561815187803
941,0.0
1004,0.0
1067,21.5
1130,0.0
1193,0.0
1256,0.0
1345,9631376.970535204
2,1, 1, 1, 0,12, 0.00,60.00,Sunday
7,1.375
798,16.629489651784482
800,9.223561847125687
801,21.500000008885404
803,23.0
804,20.994792332788588
805,7.400220458406533
941,0.0
1004,0.0
1067,21.5
1130,0.0
1193,0.0
1256,0.0
1345,10291075.911146328
2,1, 1, 1, 0,13, 0.00,60.00,Sunday
7,2.25
798,17.07176186670407
800,9.308809798726296
801,21.500000000000004
803,23.0
804,20.992349815908295
805,7.527289104465832
941,0.0
1004,0.0
1067,21.5
1130,0.0
1193,0.0
1256,0.0
1345,11576672.574495645
2,1, 1, 1, 0,14, 0.00,60.00,Sunday
7,2.375
798,17.084692677960167
800,9.082618920102933
801,21.499998414266557
803,23.0
804,21.005527661088564
805,7.00130364281634
941,0.0
1004,0.0
1067,21.5
1130,0.0
1193,0.0
1256,0.0
1345,11987672.215489356
2,1, 1, 1, 0,15, 0.00,60.00,Sunday
7,1.375
798,17.25226354402043
800,8.29635883119617
801,21.499993787381023
803,23.0
804,21.01996493241474
805,5.277791786839606
941,0.0
1004,0.0
1067,21.5
1130,0.0
1193,0.0
1256,0.0
1345,13604919.357583942
2,1, 1, 1, 0,16, 0.00,60.00,Sunday
7,1.0
798,17.311401949758263
800,7.71310234512209
801,21.499998415132314
803,23.0
804,21.026160422608854
805,3.746256897915659
941,0.0
1004,0.0
1067,21.5
1130,0.0
1193,0.0
1256,0.0
1345,13525518.412871026
2,1, 1, 1, 0,17, 0.00,60.00,Sunday
7,0.375
798,16.826441384206085
800,7.310012943460453
801,21.500000678918095
803,23.0
804,21.012249239254917
805,2.6549990467215534
941,0.0
1004,0.0
1067,21.5
1130,0.0
1193,0.0
1256,0.0
1345,12226669.590220071
2,1, 1, 1, 0,18, 0.00,60.00,Sunday
7,-0.625
798,17.070592094784438
800,6.624596750745377
801,21.49999772892767
803,23.0
804,21.01329506981801
805,1.245964993386339
941,0.0
1004,0.0
1067,21.5
1130,0.0
1193,0.0
1256,0.0
1345,15629525.811168142
2,1, 1, 1, 0,19, 0.00,60.00,Sunday
7,-1.625
798,16.736773933347806
800,6.003369274772197
801,21.499997043165685
803,23.0
804,20.998248894023686
805,-0.013764900010865111
941,0.0
1004,0.0
1067,21.5
1130,0.0
1193,0.0
1256,0.0
1345,13045425.0738433
2,1, 1, 1, 0,20, 0.00,60.00,Sunday
7,-3.25
798,16.287821112224478
800,5.14340131204494
801,21.49998523685309
803,23.0
804,20.96751755897705
805,-1.480906511521248
941,0.0
1004,0.0
1067,21.5
1130,0.0
1193,0.0
1256,0.0
1345,13990223.177785112
2,1, 1, 1, 0,21, 0.00,60.00,Sunday
7,-4.625
798,16.310548117716113
800,4.349032105584191
801,21.49999323327533
803,23.0
804,20.94687718035599
805,-2.905077945601743
941,0.0
1004,0.0
1067,21.5
1130,0.0
1193,0.0
1256,0.0
1345,15259716.086461766
2,1, 1, 1, 0,22, 0.00,60.00,Sunday
7,-5.625
798,16.17655781943283
800,3.895096360575236
801,21.499999999968146
803,23.0
804,20.931664561129104
805,-3.8887809234196844
941,0.0
1004,0.0
1067,21.5
1130,0.0
1193,0.0
1256,0.0
1345,15987775.304108195
2,1, 1, 1, 0,23, 0.00,60.00,Sunday
7,-6.625
798,16.291091929765706
800,3.1876363753739776
801,21.49998355981613
803,23.0
804,20.931567172444147
805,-5.001874940237901
941,0.0
1004,0.0
1067,21.5
1130,0.0
1193,0.0
1256,0.0
1345,18562252.834112205
2,1, 1, 1, 0,24, 0.00,60.00,Sunday
7,-7.0
798,16.89545923451696
800,2.4448136593156953
801,21.49999983885756
803,23.0
804,20.960653483901137
805,-5.91971032124655
941,0.0
1004,0.0
1067,21.5
1130,0.0
1193,0.0
1256,0.0
1345,21327544.987393904
End of Data
 Number of Records Written=         336
