Program Version,EnergyPlus, Version 9.6.0-f420c06a69, YMD=2022.04.13 16:13
1,5,Environment Title[],Latitude[deg],Longitude[deg],Time Zone[],Elevation[m]
2,8,Day of Simulation[],Month[],Day of Month[],DST Indicator[1=yes 0=no],Hour[],StartMinute[],EndMinute[],DayType
3,5,Cumulative Day of Simulation[],Month[],Day of Month[],DST Indicator[1=yes 0=no],DayType  ! When Daily Report Variables Requested
4,2,Cumulative Days of Simulation[],Month[]  ! When Monthly Report Variables Requested
5,1,Cumulative Days of Simulation[] ! When Run Period Report Variables Requested
6,1,Calendar Year of Simulation[] ! When Annual Report Variables Requested
7,1,Environment,Site Outdoor Air Drybulb Temperature [C] !Hourly
627,1,LIVING ZONE,Zone Mean Air Temperature [C] !Hourly
762,1,LIVING ZONE,Zone Air Temperature [C] !Hourly
763,1,LIVING ZONE,Zone Thermostat Heating Setpoint Temperature [C] !Hourly
1398,1,Heating:Electricity [J] !Hourly
End of Data Dictionary
1,RUN PERIOD 1,  39.74,-105.18,  -7.00,1829.00
2,1, 1, 1, 0, 1, 0.00,60.00,Monday
7,-4.5
627,21.50025775308498
762,21.50025775308498
763,21.5
1398,21727665.444162805
2,1, 1, 1, 0, 2, 0.00,60.00,Monday
7,-3.0
627,21.50051866746042
762,21.50051866746042
763,21.5
1398,20678943.020024776
2,1, 1, 1, 0, 3, 0.00,60.00,Monday
7,-3.625
627,21.49933962281725
762,21.49933962281725
763,21.5
1398,21487094.831586037
2,1, 1, 1, 0, 4, 0.00,60.00,Monday
7,-2.75
627,21.500705061642535
762,21.500705061642535
763,21.5
1398,20899248.8768379
2,1, 1, 1, 0, 5, 0.00,60.00,Monday
7,-2.0
627,21.50024816705163
762,21.50024816705163
763,21.5
1398,18108541.675278123
2,1, 1, 1, 0, 6, 0.00,60.00,Monday
7,-1.375
627,21.499225000471544
762,21.499225000471544
763,21.5
1398,19229111.40942164
2,1, 1, 1, 0, 7, 0.00,60.00,Monday
7,-1.0
627,21.499195690393904
762,21.499195690393904
763,21.5
1398,17411685.87915831
2,1, 1, 1, 0, 8, 0.00,60.00,Monday
7,-1.0
627,21.49939012650563
762,21.49939012650563
763,21.5
1398,17181081.108616006
2,1, 1, 1, 0, 9, 0.00,60.00,Monday
7,-0.375
627,21.49867214454728
762,21.49867214454728
763,21.5
1398,16346978.060555032
2,1, 1, 1, 0,10, 0.00,60.00,Monday
7,1.25
627,21.500269392515026
762,21.500269392515026
763,21.5
1398,15944377.65279023
2,1, 1, 1, 0,11, 0.00,60.00,Monday
7,2.0
627,21.500856976219332
762,21.500856976219332
763,21.5
1398,13227203.644738784
2,1, 1, 1, 0,12, 0.00,60.00,Monday
7,1.375
627,21.49829195193761
762,21.49829195193761
763,21.5
1398,15126906.506948305
2,1, 1, 1, 0,13, 0.00,60.00,Monday
7,2.25
627,21.499403936591545
762,21.499403936591545
763,21.5
1398,16628884.379674125
2,1, 1, 1, 0,14, 0.00,60.00,Monday
7,2.375
627,21.499189670794127
762,21.499189670794127
763,21.5
1398,19108463.393873528
2,1, 1, 1, 0,15, 0.00,60.00,Monday
7,1.375
627,21.498270354543834
762,21.498270354543834
763,21.5
1398,20039014.55210261
2,1, 1, 1, 0,16, 0.00,60.00,Monday
7,1.0
627,21.49844751319625
762,21.49844751319625
763,21.5
1398,19092925.00505855
2,1, 1, 1, 0,17, 0.00,60.00,Monday
7,0.375
627,21.499826340597885
762,21.499826340597885
763,21.5
1398,18457531.593875095
2,1, 1, 1, 0,18, 0.00,60.00,Monday
7,-0.625
627,21.50138487909593
762,21.50138487909593
763,21.5
1398,15018603.86488241
2,1, 1, 1, 0,19, 0.00,60.00,Monday
7,-1.625
627,21.499566078240218
762,21.499566078240218
763,21.5
1398,14742575.327631665
2,1, 1, 1, 0,20, 0.00,60.00,Monday
7,-3.25
627,21.49981039683291
762,21.49981039683291
763,21.5
1398,18818664.45419292
2,1, 1, 1, 0,21, 0.00,60.00,Monday
7,-4.625
627,21.50009473254108
762,21.50009473254108
763,21.5
1398,22998768.112619605
2,1, 1, 1, 0,22, 0.00,60.00,Monday
7,-5.625
627,21.501053788013067
762,21.501053788013067
763,21.5
1398,18824821.483059764
2,1, 1, 1, 0,23, 0.00,60.00,Monday
7,-6.625
627,21.502120724688982
762,21.502120724688982
763,21.5
1398,23157800.4699359
2,1, 1, 1, 0,24, 0.00,60.00,Monday
7,-7.0
627,21.49972913224898
762,21.49972913224898
763,21.5
1398,25772901.259085897
End of Data
 Number of Records Written=         120
