Program Version,EnergyPlus, Version 9.6.0-f420c06a69, YMD=2022.04.15 16:06
1,5,Environment Title[],Latitude[deg],Longitude[deg],Time Zone[],Elevation[m]
2,8,Day of Simulation[],Month[],Day of Month[],DST Indicator[1=yes 0=no],Hour[],StartMinute[],EndMinute[],DayType
3,5,Cumulative Day of Simulation[],Month[],Day of Month[],DST Indicator[1=yes 0=no],DayType  ! When Daily Report Variables Requested
4,2,Cumulative Days of Simulation[],Month[]  ! When Monthly Report Variables Requested
5,1,Cumulative Days of Simulation[] ! When Run Period Report Variables Requested
6,1,Calendar Year of Simulation[] ! When Annual Report Variables Requested
7,1,Environment,Site Outdoor Air Drybulb Temperature [C] !Hourly
8,1,BREEZEWAY,Zone Total Internal Total Heating Energy [J] !Hourly
9,1,BREEZEWAY,Zone Total Internal Total Heating Rate [W] !Hourly
10,1,LIVING_UNIT1_FRONTROW_BOTTOMFLOOR,Zone Total Internal Total Heating Energy [J] !Hourly
11,1,LIVING_UNIT1_FRONTROW_BOTTOMFLOOR,Zone Total Internal Total Heating Rate [W] !Hourly
12,1,LIVING_UNIT2_FRONTROW_BOTTOMFLOOR,Zone Total Internal Total Heating Energy [J] !Hourly
13,1,LIVING_UNIT2_FRONTROW_BOTTOMFLOOR,Zone Total Internal Total Heating Rate [W] !Hourly
14,1,LIVING_UNIT3_FRONTROW_BOTTOMFLOOR,Zone Total Internal Total Heating Energy [J] !Hourly
15,1,LIVING_UNIT3_FRONTROW_BOTTOMFLOOR,Zone Total Internal Total Heating Rate [W] !Hourly
16,1,LIVING_UNIT1_BACKROW_BOTTOMFLOOR,Zone Total Internal Total Heating Energy [J] !Hourly
17,1,LIVING_UNIT1_BACKROW_BOTTOMFLOOR,Zone Total Internal Total Heating Rate [W] !Hourly
18,1,LIVING_UNIT2_BACKROW_BOTTOMFLOOR,Zone Total Internal Total Heating Energy [J] !Hourly
19,1,LIVING_UNIT2_BACKROW_BOTTOMFLOOR,Zone Total Internal Total Heating Rate [W] !Hourly
20,1,LIVING_UNIT3_BACKROW_BOTTOMFLOOR,Zone Total Internal Total Heating Energy [J] !Hourly
21,1,LIVING_UNIT3_BACKROW_BOTTOMFLOOR,Zone Total Internal Total Heating Rate [W] !Hourly
22,1,LIVING_UNIT1_FRONTROW_MIDDLEFLOOR,Zone Total Internal Total Heating Energy [J] !Hourly
23,1,LIVING_UNIT1_FRONTROW_MIDDLEFLOOR,Zone Total Internal Total Heating Rate [W] !Hourly
24,1,LIVING_UNIT2_FRONTROW_MIDDLEFLOOR,Zone Total Internal Total Heating Energy [J] !Hourly
25,1,LIVING_UNIT2_FRONTROW_MIDDLEFLOOR,Zone Total Internal Total Heating Rate [W] !Hourly
26,1,LIVING_UNIT3_FRONTROW_MIDDLEFLOOR,Zone Total Internal Total Heating Energy [J] !Hourly
27,1,LIVING_UNIT3_FRONTROW_MIDDLEFLOOR,Zone Total Internal Total Heating Rate [W] !Hourly
28,1,LIVING_UNIT1_BACKROW_MIDDLEFLOOR,Zone Total Internal Total Heating Energy [J] !Hourly
29,1,LIVING_UNIT1_BACKROW_MIDDLEFLOOR,Zone Total Internal Total Heating Rate [W] !Hourly
30,1,LIVING_UNIT2_BACKROW_MIDDLEFLOOR,Zone Total Internal Total Heating Energy [J] !Hourly
31,1,LIVING_UNIT2_BACKROW_MIDDLEFLOOR,Zone Total Internal Total Heating Rate [W] !Hourly
32,1,LIVING_UNIT3_BACKROW_MIDDLEFLOOR,Zone Total Internal Total Heating Energy [J] !Hourly
33,1,LIVING_UNIT3_BACKROW_MIDDLEFLOOR,Zone Total Internal Total Heating Rate [W] !Hourly
34,1,ATTIC,Zone Total Internal Total Heating Energy [J] !Hourly
35,1,ATTIC,Zone Total Internal Total Heating Rate [W] !Hourly
36,1,LIVING_UNIT3_BACKROW_TOPFLOOR,Zone Total Internal Total Heating Energy [J] !Hourly
37,1,LIVING_UNIT3_BACKROW_TOPFLOOR,Zone Total Internal Total Heating Rate [W] !Hourly
38,1,LIVING_UNIT3_FRONTROW_TOPFLOOR,Zone Total Internal Total Heating Energy [J] !Hourly
39,1,LIVING_UNIT3_FRONTROW_TOPFLOOR,Zone Total Internal Total Heating Rate [W] !Hourly
40,1,LIVING_UNIT1_FRONTROW_TOPFLOOR,Zone Total Internal Total Heating Energy [J] !Hourly
41,1,LIVING_UNIT1_FRONTROW_TOPFLOOR,Zone Total Internal Total Heating Rate [W] !Hourly
42,1,LIVING_UNIT2_BACKROW_TOPFLOOR,Zone Total Internal Total Heating Energy [J] !Hourly
43,1,LIVING_UNIT2_BACKROW_TOPFLOOR,Zone Total Internal Total Heating Rate [W] !Hourly
44,1,LIVING_UNIT2_FRONTROW_TOPFLOOR,Zone Total Internal Total Heating Energy [J] !Hourly
45,1,LIVING_UNIT2_FRONTROW_TOPFLOOR,Zone Total Internal Total Heating Rate [W] !Hourly
46,1,LIVING_UNIT1_BACKROW_TOPFLOOR,Zone Total Internal Total Heating Energy [J] !Hourly
47,1,LIVING_UNIT1_BACKROW_TOPFLOOR,Zone Total Internal Total Heating Rate [W] !Hourly
889,1,DISHWASHER1_FRONTROW_BOTTOMFLOOR,Electric Equipment Total Heating Energy [J] !Hourly
927,1,REFRIGERATOR1_FRONTROW_BOTTOMFLOOR,Electric Equipment Total Heating Energy [J] !Hourly
965,1,CLOTHESWASHER1_FRONTROW_BOTTOMFLOOR,Electric Equipment Total Heating Energy [J] !Hourly
1003,1,ELECTRIC_DRYER1_FRONTROW_BOTTOMFLOOR,Electric Equipment Total Heating Energy [J] !Hourly
1041,1,ELECTRIC_RANGE1_FRONTROW_BOTTOMFLOOR,Electric Equipment Total Heating Energy [J] !Hourly
1079,1,TELEVISION1_FRONTROW_BOTTOMFLOOR,Electric Equipment Total Heating Energy [J] !Hourly
1117,1,ELECTRIC_MELS1_FRONTROW_BOTTOMFLOOR,Electric Equipment Total Heating Energy [J] !Hourly
1155,1,IECC_ADJ1_FRONTROW_BOTTOMFLOOR,Electric Equipment Total Heating Energy [J] !Hourly
1181,1,DISHWASHER2_FRONTROW_BOTTOMFLOOR,Electric Equipment Total Heating Energy [J] !Hourly
1195,1,REFRIGERATOR2_FRONTROW_BOTTOMFLOOR,Electric Equipment Total Heating Energy [J] !Hourly
1209,1,CLOTHESWASHER2_FRONTROW_BOTTOMFLOOR,Electric Equipment Total Heating Energy [J] !Hourly
1223,1,ELECTRIC_DRYER2_FRONTROW_BOTTOMFLOOR,Electric Equipment Total Heating Energy [J] !Hourly
1237,1,ELECTRIC_RANGE2_FRONTROW_BOTTOMFLOOR,Electric Equipment Total Heating Energy [J] !Hourly
1251,1,TELEVISION2_FRONTROW_BOTTOMFLOOR,Electric Equipment Total Heating Energy [J] !Hourly
1265,1,ELECTRIC_MELS2_FRONTROW_BOTTOMFLOOR,Electric Equipment Total Heating Energy [J] !Hourly
1279,1,IECC_ADJ2_FRONTROW_BOTTOMFLOOR,Electric Equipment Total Heating Energy [J] !Hourly
1305,1,DISHWASHER3_FRONTROW_BOTTOMFLOOR,Electric Equipment Total Heating Energy [J] !Hourly
1319,1,REFRIGERATOR3_FRONTROW_BOTTOMFLOOR,Electric Equipment Total Heating Energy [J] !Hourly
1333,1,CLOTHESWASHER3_FRONTROW_BOTTOMFLOOR,Electric Equipment Total Heating Energy [J] !Hourly
1347,1,ELECTRIC_DRYER3_FRONTROW_BOTTOMFLOOR,Electric Equipment Total Heating Energy [J] !Hourly
1361,1,ELECTRIC_RANGE3_FRONTROW_BOTTOMFLOOR,Electric Equipment Total Heating Energy [J] !Hourly
1375,1,TELEVISION3_FRONTROW_BOTTOMFLOOR,Electric Equipment Total Heating Energy [J] !Hourly
1389,1,ELECTRIC_MELS3_FRONTROW_BOTTOMFLOOR,Electric Equipment Total Heating Energy [J] !Hourly
1403,1,IECC_ADJ3_FRONTROW_BOTTOMFLOOR,Electric Equipment Total Heating Energy [J] !Hourly
1429,1,DISHWASHER1_BACKROW_BOTTOMFLOOR,Electric Equipment Total Heating Energy [J] !Hourly
1443,1,REFRIGERATOR1_BACKROW_BOTTOMFLOOR,Electric Equipment Total Heating Energy [J] !Hourly
1457,1,CLOTHESWASHER1_BACKROW_BOTTOMFLOOR,Electric Equipment Total Heating Energy [J] !Hourly
1471,1,ELECTRIC_DRYER1_BACKROW_BOTTOMFLOOR,Electric Equipment Total Heating Energy [J] !Hourly
1485,1,ELECTRIC_RANGE1_BACKROW_BOTTOMFLOOR,Electric Equipment Total Heating Energy [J] !Hourly
1499,1,TELEVISION1_BACKROW_BOTTOMFLOOR,Electric Equipment Total Heating Energy [J] !Hourly
1513,1,ELECTRIC_MELS1_BACKROW_BOTTOMFLOOR,Electric Equipment Total Heating Energy [J] !Hourly
1527,1,IECC_ADJ1_BACKROW_BOTTOMFLOOR,Electric Equipment Total Heating Energy [J] !Hourly
1553,1,DISHWASHER2_BACKROW_BOTTOMFLOOR,Electric Equipment Total Heating Energy [J] !Hourly
1567,1,REFRIGERATOR2_BACKROW_BOTTOMFLOOR,Electric Equipment Total Heating Energy [J] !Hourly
1581,1,CLOTHESWASHER2_BACKROW_BOTTOMFLOOR,Electric Equipment Total Heating Energy [J] !Hourly
1595,1,ELECTRIC_DRYER2_BACKROW_BOTTOMFLOOR,Electric Equipment Total Heating Energy [J] !Hourly
1609,1,ELECTRIC_RANGE2_BACKROW_BOTTOMFLOOR,Electric Equipment Total Heating Energy [J] !Hourly
1623,1,TELEVISION2_BACKROW_BOTTOMFLOOR,Electric Equipment Total Heating Energy [J] !Hourly
1637,1,ELECTRIC_MELS2_BACKROW_BOTTOMFLOOR,Electric Equipment Total Heating Energy [J] !Hourly
1651,1,IECC_ADJ2_BACKROW_BOTTOMFLOOR,Electric Equipment Total Heating Energy [J] !Hourly
1677,1,DISHWASHER3_BACKROW_BOTTOMFLOOR,Electric Equipment Total Heating Energy [J] !Hourly
1691,1,REFRIGERATOR3_BACKROW_BOTTOMFLOOR,Electric Equipment Total Heating Energy [J] !Hourly
1705,1,CLOTHESWASHER3_BACKROW_BOTTOMFLOOR,Electric Equipment Total Heating Energy [J] !Hourly
1719,1,ELECTRIC_DRYER3_BACKROW_BOTTOMFLOOR,Electric Equipment Total Heating Energy [J] !Hourly
1733,1,ELECTRIC_RANGE3_BACKROW_BOTTOMFLOOR,Electric Equipment Total Heating Energy [J] !Hourly
1747,1,TELEVISION3_BACKROW_BOTTOMFLOOR,Electric Equipment Total Heating Energy [J] !Hourly
1761,1,ELECTRIC_MELS3_BACKROW_BOTTOMFLOOR,Electric Equipment Total Heating Energy [J] !Hourly
1775,1,IECC_ADJ3_BACKROW_BOTTOMFLOOR,Electric Equipment Total Heating Energy [J] !Hourly
1801,1,DISHWASHER1_FRONTROW_MIDDLEFLOOR,Electric Equipment Total Heating Energy [J] !Hourly
1815,1,REFRIGERATOR1_FRONTROW_MIDDLEFLOOR,Electric Equipment Total Heating Energy [J] !Hourly
1829,1,CLOTHESWASHER1_FRONTROW_MIDDLEFLOOR,Electric Equipment Total Heating Energy [J] !Hourly
1843,1,ELECTRIC_DRYER1_FRONTROW_MIDDLEFLOOR,Electric Equipment Total Heating Energy [J] !Hourly
1857,1,ELECTRIC_RANGE1_FRONTROW_MIDDLEFLOOR,Electric Equipment Total Heating Energy [J] !Hourly
1871,1,TELEVISION1_FRONTROW_MIDDLEFLOOR,Electric Equipment Total Heating Energy [J] !Hourly
1885,1,ELECTRIC_MELS1_FRONTROW_MIDDLEFLOOR,Electric Equipment Total Heating Energy [J] !Hourly
1899,1,IECC_ADJ1_FRONTROW_MIDDLEFLOOR,Electric Equipment Total Heating Energy [J] !Hourly
1925,1,DISHWASHER2_FRONTROW_MIDDLEFLOOR,Electric Equipment Total Heating Energy [J] !Hourly
1939,1,REFRIGERATOR2_FRONTROW_MIDDLEFLOOR,Electric Equipment Total Heating Energy [J] !Hourly
1953,1,CLOTHESWASHER2_FRONTROW_MIDDLEFLOOR,Electric Equipment Total Heating Energy [J] !Hourly
1967,1,ELECTRIC_DRYER2_FRONTROW_MIDDLEFLOOR,Electric Equipment Total Heating Energy [J] !Hourly
1981,1,ELECTRIC_RANGE2_FRONTROW_MIDDLEFLOOR,Electric Equipment Total Heating Energy [J] !Hourly
1995,1,TELEVISION2_FRONTROW_MIDDLEFLOOR,Electric Equipment Total Heating Energy [J] !Hourly
2009,1,ELECTRIC_MELS2_FRONTROW_MIDDLEFLOOR,Electric Equipment Total Heating Energy [J] !Hourly
2023,1,IECC_ADJ2_FRONTROW_MIDDLEFLOOR,Electric Equipment Total Heating Energy [J] !Hourly
2049,1,DISHWASHER3_FRONTROW_MIDDLEFLOOR,Electric Equipment Total Heating Energy [J] !Hourly
2063,1,REFRIGERATOR3_FRONTROW_MIDDLEFLOOR,Electric Equipment Total Heating Energy [J] !Hourly
2077,1,CLOTHESWASHER3_FRONTROW_MIDDLEFLOOR,Electric Equipment Total Heating Energy [J] !Hourly
2091,1,ELECTRIC_DRYER3_FRONTROW_MIDDLEFLOOR,Electric Equipment Total Heating Energy [J] !Hourly
2105,1,ELECTRIC_RANGE3_FRONTROW_MIDDLEFLOOR,Electric Equipment Total Heating Energy [J] !Hourly
2119,1,TELEVISION3_FRONTROW_MIDDLEFLOOR,Electric Equipment Total Heating Energy [J] !Hourly
2133,1,ELECTRIC_MELS3_FRONTROW_MIDDLEFLOOR,Electric Equipment Total Heating Energy [J] !Hourly
2147,1,IECC_ADJ3_FRONTROW_MIDDLEFLOOR,Electric Equipment Total Heating Energy [J] !Hourly
2173,1,DISHWASHER1_BACKROW_MIDDLEFLOOR,Electric Equipment Total Heating Energy [J] !Hourly
2187,1,REFRIGERATOR1_BACKROW_MIDDLEFLOOR,Electric Equipment Total Heating Energy [J] !Hourly
2201,1,CLOTHESWASHER1_BACKROW_MIDDLEFLOOR,Electric Equipment Total Heating Energy [J] !Hourly
2215,1,ELECTRIC_DRYER1_BACKROW_MIDDLEFLOOR,Electric Equipment Total Heating Energy [J] !Hourly
2229,1,ELECTRIC_RANGE1_BACKROW_MIDDLEFLOOR,Electric Equipment Total Heating Energy [J] !Hourly
2243,1,TELEVISION1_BACKROW_MIDDLEFLOOR,Electric Equipment Total Heating Energy [J] !Hourly
2257,1,ELECTRIC_MELS1_BACKROW_MIDDLEFLOOR,Electric Equipment Total Heating Energy [J] !Hourly
2271,1,IECC_ADJ1_BACKROW_MIDDLEFLOOR,Electric Equipment Total Heating Energy [J] !Hourly
2297,1,DISHWASHER2_BACKROW_MIDDLEFLOOR,Electric Equipment Total Heating Energy [J] !Hourly
2311,1,REFRIGERATOR2_BACKROW_MIDDLEFLOOR,Electric Equipment Total Heating Energy [J] !Hourly
2325,1,CLOTHESWASHER2_BACKROW_MIDDLEFLOOR,Electric Equipment Total Heating Energy [J] !Hourly
2339,1,ELECTRIC_DRYER2_BACKROW_MIDDLEFLOOR,Electric Equipment Total Heating Energy [J] !Hourly
2353,1,ELECTRIC_RANGE2_BACKROW_MIDDLEFLOOR,Electric Equipment Total Heating Energy [J] !Hourly
2367,1,TELEVISION2_BACKROW_MIDDLEFLOOR,Electric Equipment Total Heating Energy [J] !Hourly
2381,1,ELECTRIC_MELS2_BACKROW_MIDDLEFLOOR,Electric Equipment Total Heating Energy [J] !Hourly
2395,1,IECC_ADJ2_BACKROW_MIDDLEFLOOR,Electric Equipment Total Heating Energy [J] !Hourly
2421,1,DISHWASHER3_BACKROW_MIDDLEFLOOR,Electric Equipment Total Heating Energy [J] !Hourly
2435,1,REFRIGERATOR3_BACKROW_MIDDLEFLOOR,Electric Equipment Total Heating Energy [J] !Hourly
2449,1,CLOTHESWASHER3_BACKROW_MIDDLEFLOOR,Electric Equipment Total Heating Energy [J] !Hourly
2463,1,ELECTRIC_DRYER3_BACKROW_MIDDLEFLOOR,Electric Equipment Total Heating Energy [J] !Hourly
2477,1,ELECTRIC_RANGE3_BACKROW_MIDDLEFLOOR,Electric Equipment Total Heating Energy [J] !Hourly
2491,1,TELEVISION3_BACKROW_MIDDLEFLOOR,Electric Equipment Total Heating Energy [J] !Hourly
2505,1,ELECTRIC_MELS3_BACKROW_MIDDLEFLOOR,Electric Equipment Total Heating Energy [J] !Hourly
2519,1,IECC_ADJ3_BACKROW_MIDDLEFLOOR,Electric Equipment Total Heating Energy [J] !Hourly
2545,1,DISHWASHER1_FRONTROW_TOPFLOOR,Electric Equipment Total Heating Energy [J] !Hourly
2559,1,REFRIGERATOR1_FRONTROW_TOPFLOOR,Electric Equipment Total Heating Energy [J] !Hourly
2573,1,CLOTHESWASHER1_FRONTROW_TOPFLOOR,Electric Equipment Total Heating Energy [J] !Hourly
2587,1,ELECTRIC_DRYER1_FRONTROW_TOPFLOOR,Electric Equipment Total Heating Energy [J] !Hourly
2601,1,ELECTRIC_RANGE1_FRONTROW_TOPFLOOR,Electric Equipment Total Heating Energy [J] !Hourly
2615,1,TELEVISION1_FRONTROW_TOPFLOOR,Electric Equipment Total Heating Energy [J] !Hourly
2629,1,ELECTRIC_MELS1_FRONTROW_TOPFLOOR,Electric Equipment Total Heating Energy [J] !Hourly
2643,1,IECC_ADJ1_FRONTROW_TOPFLOOR,Electric Equipment Total Heating Energy [J] !Hourly
2669,1,DISHWASHER2_FRONTROW_TOPFLOOR,Electric Equipment Total Heating Energy [J] !Hourly
2683,1,REFRIGERATOR2_FRONTROW_TOPFLOOR,Electric Equipment Total Heating Energy [J] !Hourly
2697,1,CLOTHESWASHER2_FRONTROW_TOPFLOOR,Electric Equipment Total Heating Energy [J] !Hourly
2711,1,ELECTRIC_DRYER2_FRONTROW_TOPFLOOR,Electric Equipment Total Heating Energy [J] !Hourly
2725,1,ELECTRIC_RANGE2_FRONTROW_TOPFLOOR,Electric Equipment Total Heating Energy [J] !Hourly
2739,1,TELEVISION2_FRONTROW_TOPFLOOR,Electric Equipment Total Heating Energy [J] !Hourly
2753,1,ELECTRIC_MELS2_FRONTROW_TOPFLOOR,Electric Equipment Total Heating Energy [J] !Hourly
2767,1,IECC_ADJ2_FRONTROW_TOPFLOOR,Electric Equipment Total Heating Energy [J] !Hourly
2793,1,DISHWASHER3_FRONTROW_TOPFLOOR,Electric Equipment Total Heating Energy [J] !Hourly
2807,1,REFRIGERATOR3_FRONTROW_TOPFLOOR,Electric Equipment Total Heating Energy [J] !Hourly
2821,1,CLOTHESWASHER3_FRONTROW_TOPFLOOR,Electric Equipment Total Heating Energy [J] !Hourly
2835,1,ELECTRIC_DRYER3_FRONTROW_TOPFLOOR,Electric Equipment Total Heating Energy [J] !Hourly
2849,1,ELECTRIC_RANGE3_FRONTROW_TOPFLOOR,Electric Equipment Total Heating Energy [J] !Hourly
2863,1,TELEVISION3_FRONTROW_TOPFLOOR,Electric Equipment Total Heating Energy [J] !Hourly
2877,1,ELECTRIC_MELS3_FRONTROW_TOPFLOOR,Electric Equipment Total Heating Energy [J] !Hourly
2891,1,IECC_ADJ3_FRONTROW_TOPFLOOR,Electric Equipment Total Heating Energy [J] !Hourly
2917,1,DISHWASHER1_BACKROW_TOPFLOOR,Electric Equipment Total Heating Energy [J] !Hourly
2931,1,REFRIGERATOR1_BACKROW_TOPFLOOR,Electric Equipment Total Heating Energy [J] !Hourly
2945,1,CLOTHESWASHER1_BACKROW_TOPFLOOR,Electric Equipment Total Heating Energy [J] !Hourly
2959,1,ELECTRIC_DRYER1_BACKROW_TOPFLOOR,Electric Equipment Total Heating Energy [J] !Hourly
2973,1,ELECTRIC_RANGE1_BACKROW_TOPFLOOR,Electric Equipment Total Heating Energy [J] !Hourly
2987,1,TELEVISION1_BACKROW_TOPFLOOR,Electric Equipment Total Heating Energy [J] !Hourly
3001,1,ELECTRIC_MELS1_BACKROW_TOPFLOOR,Electric Equipment Total Heating Energy [J] !Hourly
3015,1,IECC_ADJ1_BACKROW_TOPFLOOR,Electric Equipment Total Heating Energy [J] !Hourly
3041,1,DISHWASHER2_BACKROW_TOPFLOOR,Electric Equipment Total Heating Energy [J] !Hourly
3055,1,REFRIGERATOR2_BACKROW_TOPFLOOR,Electric Equipment Total Heating Energy [J] !Hourly
3069,1,CLOTHESWASHER2_BACKROW_TOPFLOOR,Electric Equipment Total Heating Energy [J] !Hourly
3083,1,ELECTRIC_DRYER2_BACKROW_TOPFLOOR,Electric Equipment Total Heating Energy [J] !Hourly
3097,1,ELECTRIC_RANGE2_BACKROW_TOPFLOOR,Electric Equipment Total Heating Energy [J] !Hourly
3111,1,TELEVISION2_BACKROW_TOPFLOOR,Electric Equipment Total Heating Energy [J] !Hourly
3125,1,ELECTRIC_MELS2_BACKROW_TOPFLOOR,Electric Equipment Total Heating Energy [J] !Hourly
3139,1,IECC_ADJ2_BACKROW_TOPFLOOR,Electric Equipment Total Heating Energy [J] !Hourly
3165,1,DISHWASHER3_BACKROW_TOPFLOOR,Electric Equipment Total Heating Energy [J] !Hourly
3179,1,REFRIGERATOR3_BACKROW_TOPFLOOR,Electric Equipment Total Heating Energy [J] !Hourly
3193,1,CLOTHESWASHER3_BACKROW_TOPFLOOR,Electric Equipment Total Heating Energy [J] !Hourly
3207,1,ELECTRIC_DRYER3_BACKROW_TOPFLOOR,Electric Equipment Total Heating Energy [J] !Hourly
3221,1,ELECTRIC_RANGE3_BACKROW_TOPFLOOR,Electric Equipment Total Heating Energy [J] !Hourly
3235,1,TELEVISION3_BACKROW_TOPFLOOR,Electric Equipment Total Heating Energy [J] !Hourly
3249,1,ELECTRIC_MELS3_BACKROW_TOPFLOOR,Electric Equipment Total Heating Energy [J] !Hourly
3263,1,IECC_ADJ3_BACKROW_TOPFLOOR,Electric Equipment Total Heating Energy [J] !Hourly
3264,1,LIVING_UNIT1_FRONTROW_BOTTOMFLOOR,Zone Electric Equipment Total Heating Energy [J] !Hourly
3265,1,LIVING_UNIT2_FRONTROW_BOTTOMFLOOR,Zone Electric Equipment Total Heating Energy [J] !Hourly
3266,1,LIVING_UNIT3_FRONTROW_BOTTOMFLOOR,Zone Electric Equipment Total Heating Energy [J] !Hourly
3267,1,LIVING_UNIT1_BACKROW_BOTTOMFLOOR,Zone Electric Equipment Total Heating Energy [J] !Hourly
3268,1,LIVING_UNIT2_BACKROW_BOTTOMFLOOR,Zone Electric Equipment Total Heating Energy [J] !Hourly
3269,1,LIVING_UNIT3_BACKROW_BOTTOMFLOOR,Zone Electric Equipment Total Heating Energy [J] !Hourly
3270,1,LIVING_UNIT1_FRONTROW_MIDDLEFLOOR,Zone Electric Equipment Total Heating Energy [J] !Hourly
3271,1,LIVING_UNIT2_FRONTROW_MIDDLEFLOOR,Zone Electric Equipment Total Heating Energy [J] !Hourly
3272,1,LIVING_UNIT3_FRONTROW_MIDDLEFLOOR,Zone Electric Equipment Total Heating Energy [J] !Hourly
3273,1,LIVING_UNIT1_BACKROW_MIDDLEFLOOR,Zone Electric Equipment Total Heating Energy [J] !Hourly
3274,1,LIVING_UNIT2_BACKROW_MIDDLEFLOOR,Zone Electric Equipment Total Heating Energy [J] !Hourly
3275,1,LIVING_UNIT3_BACKROW_MIDDLEFLOOR,Zone Electric Equipment Total Heating Energy [J] !Hourly
3276,1,LIVING_UNIT3_BACKROW_TOPFLOOR,Zone Electric Equipment Total Heating Energy [J] !Hourly
3277,1,LIVING_UNIT3_FRONTROW_TOPFLOOR,Zone Electric Equipment Total Heating Energy [J] !Hourly
3278,1,LIVING_UNIT1_FRONTROW_TOPFLOOR,Zone Electric Equipment Total Heating Energy [J] !Hourly
3279,1,LIVING_UNIT2_BACKROW_TOPFLOOR,Zone Electric Equipment Total Heating Energy [J] !Hourly
3280,1,LIVING_UNIT2_FRONTROW_TOPFLOOR,Zone Electric Equipment Total Heating Energy [J] !Hourly
3281,1,LIVING_UNIT1_BACKROW_TOPFLOOR,Zone Electric Equipment Total Heating Energy [J] !Hourly
4322,1,BREEZEWAY,Zone Air Temperature [C] !Hourly
4385,1,LIVING_UNIT1_FRONTROW_BOTTOMFLOOR,Zone Air Temperature [C] !Hourly
4448,1,LIVING_UNIT2_FRONTROW_BOTTOMFLOOR,Zone Air Temperature [C] !Hourly
4511,1,LIVING_UNIT3_FRONTROW_BOTTOMFLOOR,Zone Air Temperature [C] !Hourly
4574,1,LIVING_UNIT1_BACKROW_BOTTOMFLOOR,Zone Air Temperature [C] !Hourly
4637,1,LIVING_UNIT2_BACKROW_BOTTOMFLOOR,Zone Air Temperature [C] !Hourly
4700,1,LIVING_UNIT3_BACKROW_BOTTOMFLOOR,Zone Air Temperature [C] !Hourly
4763,1,LIVING_UNIT1_FRONTROW_MIDDLEFLOOR,Zone Air Temperature [C] !Hourly
4826,1,LIVING_UNIT2_FRONTROW_MIDDLEFLOOR,Zone Air Temperature [C] !Hourly
4889,1,LIVING_UNIT3_FRONTROW_MIDDLEFLOOR,Zone Air Temperature [C] !Hourly
4952,1,LIVING_UNIT1_BACKROW_MIDDLEFLOOR,Zone Air Temperature [C] !Hourly
5015,1,LIVING_UNIT2_BACKROW_MIDDLEFLOOR,Zone Air Temperature [C] !Hourly
5078,1,LIVING_UNIT3_BACKROW_MIDDLEFLOOR,Zone Air Temperature [C] !Hourly
5141,1,ATTIC,Zone Air Temperature [C] !Hourly
5204,1,LIVING_UNIT3_BACKROW_TOPFLOOR,Zone Air Temperature [C] !Hourly
5267,1,LIVING_UNIT3_FRONTROW_TOPFLOOR,Zone Air Temperature [C] !Hourly
5330,1,LIVING_UNIT1_FRONTROW_TOPFLOOR,Zone Air Temperature [C] !Hourly
5393,1,LIVING_UNIT2_BACKROW_TOPFLOOR,Zone Air Temperature [C] !Hourly
5456,1,LIVING_UNIT2_FRONTROW_TOPFLOOR,Zone Air Temperature [C] !Hourly
5519,1,LIVING_UNIT1_BACKROW_TOPFLOOR,Zone Air Temperature [C] !Hourly
End of Data Dictionary
1,DENVER-AURORA-BUCKLEY.AFB_CO_USA ANN HTG 99.6% CONDNS DB,  39.74,-105.18,  -7.00,1829.00
2,1,12,21, 0, 1, 0.00,60.00,WinterDesignDay
7,-17.900000000000002
8,0.0
9,0.0
10,1992983.8441727783
11,553.6066233813273
12,1992983.8441727785
13,553.6066233813273
14,1992983.8441727783
15,553.6066233813273
16,1992983.8441727783
17,553.6066233813273
18,1992983.8441727783
19,553.6066233813273
20,1992983.8441727785
21,553.6066233813273
22,1992983.8441727783
23,553.6066233813273
24,1992983.8441727783
25,553.6066233813273
26,1992983.8441727783
27,553.6066233813273
28,1992983.8441727783
29,553.6066233813273
30,1992983.8441727783
31,553.6066233813273
32,1992983.8441727783
33,553.6066233813273
34,0.0
35,0.0
36,1992983.8441727783
37,553.6066233813273
38,1992983.8441727783
39,553.6066233813273
40,1992983.8441727783
41,553.6066233813273
42,1992983.8441727783
43,553.6066233813273
44,1992983.8441727783
45,553.6066233813273
46,1992983.8441727783
47,553.6066233813273
889,18269.725968870625
927,262245.8146182114
965,6630.2254710965535
1003,15593.823710628038
1041,24567.287951441187
1079,0.0
1117,722605.9897761466
1155,47879.268259944925
1181,18269.725968870625
1195,262245.8146182114
1209,6630.2254710965535
1223,15593.823710628038
1237,24567.287951441187
1251,0.0
1265,722605.9897761466
1279,47879.268259944925
1305,18269.725968870625
1319,262245.8146182114
1333,6630.2254710965535
1347,15593.823710628038
1361,24567.287951441187
1375,0.0
1389,722605.9897761466
1403,47879.2682599449
1429,18269.725968870625
1443,262245.8146182114
1457,6630.2254710965535
1471,15593.823710628038
1485,24567.287951441187
1499,0.0
1513,722605.9897761466
1527,47879.268259944925
1553,18269.725968870625
1567,262245.8146182114
1581,6630.2254710965535
1595,15593.823710628038
1609,24567.287951441187
1623,0.0
1637,722605.9897761466
1651,47879.268259944925
1677,18269.725968870625
1691,262245.8146182114
1705,6630.2254710965535
1719,15593.823710628038
1733,24567.287951441187
1747,0.0
1761,722605.9897761466
1775,47879.2682599449
1801,18269.725968870625
1815,262245.8146182114
1829,6630.2254710965535
1843,15593.823710628038
1857,24567.287951441187
1871,0.0
1885,722605.9897761466
1899,47879.268259944925
1925,18269.725968870625
1939,262245.8146182114
1953,6630.2254710965535
1967,15593.823710628038
1981,24567.287951441187
1995,0.0
2009,722605.9897761466
2023,47879.268259944925
2049,18269.725968870625
2063,262245.8146182114
2077,6630.2254710965535
2091,15593.823710628038
2105,24567.287951441187
2119,0.0
2133,722605.9897761466
2147,47879.2682599449
2173,18269.725968870625
2187,262245.8146182114
2201,6630.2254710965535
2215,15593.823710628038
2229,24567.287951441187
2243,0.0
2257,722605.9897761466
2271,47879.268259944925
2297,18269.725968870625
2311,262245.8146182114
2325,6630.2254710965535
2339,15593.823710628038
2353,24567.287951441187
2367,0.0
2381,722605.9897761466
2395,47879.268259944925
2421,18269.725968870625
2435,262245.8146182114
2449,6630.2254710965535
2463,15593.823710628038
2477,24567.287951441187
2491,0.0
2505,722605.9897761466
2519,47879.2682599449
2545,18269.725968870625
2559,262245.8146182114
2573,6630.2254710965535
2587,15593.823710628038
2601,24567.287951441187
2615,0.0
2629,722605.9897761466
2643,47879.268259944925
2669,18269.725968870625
2683,262245.8146182114
2697,6630.2254710965535
2711,15593.823710628038
2725,24567.287951441187
2739,0.0
2753,722605.9897761466
2767,47879.268259944925
2793,18269.725968870625
2807,262245.8146182114
2821,6630.2254710965535
2835,15593.823710628038
2849,24567.287951441187
2863,0.0
2877,722605.9897761466
2891,47879.2682599449
2917,18269.725968870625
2931,262245.8146182114
2945,6630.2254710965535
2959,15593.823710628038
2973,24567.287951441187
2987,0.0
3001,722605.9897761466
3015,47879.268259944925
3041,18269.725968870625
3055,262245.8146182114
3069,6630.2254710965535
3083,15593.823710628038
3097,24567.287951441187
3111,0.0
3125,722605.9897761466
3139,47879.268259944925
3165,18269.725968870625
3179,262245.8146182114
3193,6630.2254710965535
3207,15593.823710628038
3221,24567.287951441187
3235,0.0
3249,722605.9897761466
3263,47879.2682599449
3264,1097792.1357563392
3265,1097792.1357563392
3266,1097792.1357563392
3267,1097792.1357563392
3268,1097792.1357563392
3269,1097792.1357563392
3270,1097792.1357563392
3271,1097792.1357563392
3272,1097792.1357563392
3273,1097792.1357563392
3274,1097792.1357563392
3275,1097792.1357563392
3276,1097792.1357563392
3277,1097792.1357563392
3278,1097792.1357563392
3279,1097792.1357563392
3280,1097792.1357563392
3281,1097792.1357563392
4322,-17.980031107620768
4385,22.2222222222223
4448,22.222222222222285
4511,22.222222222222044
4574,22.2222222222223
4637,22.222222222222285
4700,22.2222222222221
4763,22.2222222222223
4826,22.2222222222223
4889,22.2222222222223
4952,22.2222222222223
5015,22.2222222222223
5078,22.2222222222223
5141,-19.338251359206748
5204,22.2222222222223
5267,22.2222222222223
5330,22.222222222222296
5393,22.2222222222223
5456,22.2222222222223
5519,22.2222222222223
2,1,12,21, 0, 2, 0.00,60.00,WinterDesignDay
7,-17.900000000000002
8,0.0
9,0.0
10,1908522.7487779686
11,530.14520799388
12,1908522.7487779686
13,530.14520799388
14,1908522.7487779686
15,530.14520799388
16,1908522.7487779686
17,530.14520799388
18,1908522.7487779686
19,530.14520799388
20,1908522.7487779686
21,530.14520799388
22,1908522.7487779686
23,530.14520799388
24,1908522.7487779686
25,530.14520799388
26,1908522.7487779686
27,530.14520799388
28,1908522.7487779686
29,530.14520799388
30,1908522.7487779686
31,530.14520799388
32,1908522.7487779686
33,530.14520799388
34,0.0
35,0.0
36,1908522.7487779686
37,530.14520799388
38,1908522.7487779686
39,530.14520799388
40,1908522.7487779686
41,530.14520799388
42,1908522.7487779686
43,530.14520799388
44,1908522.7487779686
45,530.14520799388
46,1908522.7487779686
47,530.14520799388
889,8117.23329691844
927,256573.49569035263
965,5302.760628382356
1003,9356.294226376835
1041,24567.287951441187
1079,0.0
1117,665329.7744135854
1155,44084.194154472876
1181,8117.23329691844
1195,256573.49569035263
1209,5302.760628382356
1223,9356.294226376835
1237,24567.287951441187
1251,0.0
1265,665329.7744135854
1279,44084.194154472876
1305,8117.23329691844
1319,256573.49569035263
1333,5302.760628382356
1347,9356.294226376835
1361,24567.287951441187
1375,0.0
1389,665329.7744135854
1403,44084.19415447287
1429,8117.23329691844
1443,256573.49569035263
1457,5302.760628382356
1471,9356.294226376835
1485,24567.287951441187
1499,0.0
1513,665329.7744135854
1527,44084.194154472876
1553,8117.23329691844
1567,256573.49569035263
1581,5302.760628382356
1595,9356.294226376835
1609,24567.287951441187
1623,0.0
1637,665329.7744135854
1651,44084.194154472876
1677,8117.23329691844
1691,256573.49569035263
1705,5302.760628382356
1719,9356.294226376835
1733,24567.287951441187
1747,0.0
1761,665329.7744135854
1775,44084.19415447287
1801,8117.23329691844
1815,256573.49569035263
1829,5302.760628382356
1843,9356.294226376835
1857,24567.287951441187
1871,0.0
1885,665329.7744135854
1899,44084.194154472876
1925,8117.23329691844
1939,256573.49569035263
1953,5302.760628382356
1967,9356.294226376835
1981,24567.287951441187
1995,0.0
2009,665329.7744135854
2023,44084.194154472876
2049,8117.23329691844
2063,256573.49569035263
2077,5302.760628382356
2091,9356.294226376835
2105,24567.287951441187
2119,0.0
2133,665329.7744135854
2147,44084.19415447287
2173,8117.23329691844
2187,256573.49569035263
2201,5302.760628382356
2215,9356.294226376835
2229,24567.287951441187
2243,0.0
2257,665329.7744135854
2271,44084.194154472876
2297,8117.23329691844
2311,256573.49569035263
2325,5302.760628382356
2339,9356.294226376835
2353,24567.287951441187
2367,0.0
2381,665329.7744135854
2395,44084.194154472876
2421,8117.23329691844
2435,256573.49569035263
2449,5302.760628382356
2463,9356.294226376835
2477,24567.287951441187
2491,0.0
2505,665329.7744135854
2519,44084.19415447287
2545,8117.23329691844
2559,256573.49569035263
2573,5302.760628382356
2587,9356.294226376835
2601,24567.287951441187
2615,0.0
2629,665329.7744135854
2643,44084.194154472876
2669,8117.23329691844
2683,256573.49569035263
2697,5302.760628382356
2711,9356.294226376835
2725,24567.287951441187
2739,0.0
2753,665329.7744135854
2767,44084.194154472876
2793,8117.23329691844
2807,256573.49569035263
2821,5302.760628382356
2835,9356.294226376835
2849,24567.287951441187
2863,0.0
2877,665329.7744135854
2891,44084.19415447287
2917,8117.23329691844
2931,256573.49569035263
2945,5302.760628382356
2959,9356.294226376835
2973,24567.287951441187
2987,0.0
3001,665329.7744135854
3015,44084.194154472876
3041,8117.23329691844
3055,256573.49569035263
3069,5302.760628382356
3083,9356.294226376835
3097,24567.287951441187
3111,0.0
3125,665329.7744135854
3139,44084.194154472876
3165,8117.23329691844
3179,256573.49569035263
3193,5302.760628382356
3207,9356.294226376835
3221,24567.287951441187
3235,0.0
3249,665329.7744135854
3263,44084.19415447287
3264,1013331.0403615294
3265,1013331.0403615294
3266,1013331.0403615294
3267,1013331.0403615294
3268,1013331.0403615294
3269,1013331.0403615294
3270,1013331.0403615294
3271,1013331.0403615294
3272,1013331.0403615294
3273,1013331.0403615294
3274,1013331.0403615294
3275,1013331.0403615294
3276,1013331.0403615294
3277,1013331.0403615294
3278,1013331.0403615294
3279,1013331.0403615294
3280,1013331.0403615294
3281,1013331.0403615294
4322,-17.98003712579622