Program Version,EnergyPlus, Version 9.6.0-f420c06a69, YMD=2022.04.08 14:06
1,5,Environment Title[],Latitude[deg],Longitude[deg],Time Zone[],Elevation[m]
2,8,Day of Simulation[],Month[],Day of Month[],DST Indicator[1=yes 0=no],Hour[],StartMinute[],EndMinute[],DayType
3,5,Cumulative Day of Simulation[],Month[],Day of Month[],DST Indicator[1=yes 0=no],DayType  ! When Daily Report Variables Requested
4,2,Cumulative Days of Simulation[],Month[]  ! When Monthly Report Variables Requested
5,1,Cumulative Days of Simulation[] ! When Run Period Report Variables Requested
6,1,Calendar Year of Simulation[] ! When Annual Report Variables Requested
7,1,Environment,Site Outdoor Air Drybulb Temperature [C] !Hourly
629,1,CRAWL ZONE,Zone Mean Air Temperature [C] !Hourly
631,1,GARAGE ZONE,Zone Mean Air Temperature [C] !Hourly
632,1,LIVING ZONE,Zone Mean Air Temperature [C] !Hourly
634,1,RES DS RES AC ASYS RET AIR ZONE,Zone Mean Air Temperature [C] !Hourly
635,1,RES DS RES FUR GAS ASYS RET AIR ZONE,Zone Mean Air Temperature [C] !Hourly
636,1,UNFINISHED ATTIC ZONE,Zone Mean Air Temperature [C] !Hourly
772,1,CRAWL ZONE,Zone Thermostat Heating Setpoint Temperature [C] !Hourly
835,1,GARAGE ZONE,Zone Thermostat Heating Setpoint Temperature [C] !Hourly
898,1,LIVING ZONE,Zone Thermostat Heating Setpoint Temperature [C] !Hourly
961,1,RES DS RES AC ASYS RET AIR ZONE,Zone Thermostat Heating Setpoint Temperature [C] !Hourly
1024,1,RES DS RES FUR GAS ASYS RET AIR ZONE,Zone Thermostat Heating Setpoint Temperature [C] !Hourly
1087,1,UNFINISHED ATTIC ZONE,Zone Thermostat Heating Setpoint Temperature [C] !Hourly
1188,1,Heating:NaturalGas [J] !Hourly
End of Data Dictionary
1,RUN PERIOD 1,  39.74,-105.18,  -7.00,1829.00
2,1, 1, 1, 0, 1, 0.00,60.00,Sunday
7,-4.5
629,26.966759287437522
631,10.75330957994903
632,21.49999999900347
634,23.0
635,22.126552774908827
636,-4.90617719880032
772,0.0
835,0.0
898,21.5
961,0.0
1024,0.0
1087,0.0
1188,79142178.47376376
2,1, 1, 1, 0, 2, 0.00,60.00,Sunday
7,-3.0
629,26.435319875893086
631,10.995963255436319
632,21.499999999999893
634,23.0
635,22.071355895461036
636,-4.460878452767917
772,0.0
835,0.0
898,21.5
961,0.0
1024,0.0
1087,0.0
1188,70542083.7869254
2,1, 1, 1, 0, 3, 0.00,60.00,Sunday
7,-3.625
629,26.406517887197694
631,10.72592579690557
632,21.5
634,23.0
635,22.02935038547137
636,-4.150789459850105
772,0.0
835,0.0
898,21.5
961,0.0
1024,0.0
1087,0.0
1188,70691860.18556389
2,1, 1, 1, 0, 4, 0.00,60.00,Sunday
7,-2.75
629,26.511322193904498
631,10.535894442570685
632,21.5
634,22.999999999999996
635,22.046951000075712
636,-3.8537870998151416
772,0.0
835,0.0
898,21.5
961,0.0
1024,0.0
1087,0.0
1188,68292277.54287612
2,1, 1, 1, 0, 5, 0.00,60.00,Sunday
7,-2.0
629,26.35225285588163
631,10.436843960713869
632,21.5
634,23.0
635,22.0330036882376
636,-3.111685709224017
772,0.0
835,0.0
898,21.5
961,0.0
1024,0.0
1087,0.0
1188,66077601.036352664
2,1, 1, 1, 0, 6, 0.00,60.00,Sunday
7,-1.375
629,26.349544700156997
631,10.404616984746484
632,21.5
634,23.0
635,22.03560347858727
636,-2.2892260993136384
772,0.0
835,0.0
898,21.5
961,0.0
1024,0.0
1087,0.0
1188,63558261.15935595
2,1, 1, 1, 0, 7, 0.00,60.00,Sunday
7,-1.0
629,26.007055499826244
631,10.401909275931214
632,21.5
634,23.0
635,22.02031149760706
636,-1.8094024287692503
772,0.0
835,0.0
898,21.5
961,0.0
1024,0.0
1087,0.0
1188,59368338.52545211
2,1, 1, 1, 0, 8, 0.00,60.00,Sunday
7,-1.0
629,26.08972612311264
631,10.259270533042905
632,21.50002270324414
634,23.0
635,21.985755308675465
636,-1.1887583050542714
772,0.0
835,0.0
898,21.5
961,0.0
1024,0.0
1087,0.0
1188,60266852.161140464
2,1, 1, 1, 0, 9, 0.00,60.00,Sunday
7,-0.375
629,25.531532083389692
631,10.28853902493595
632,21.500016422987393
634,23.0
635,21.9891675952035
636,1.0675550731512256
772,0.0
835,0.0
898,21.5
961,0.0
1024,0.0
1087,0.0
1188,51531605.23364583
2,1, 1, 1, 0,10, 0.00,60.00,Sunday
7,1.25
629,25.10494210711844
631,10.520587760591027
632,21.50001099589078
634,23.0
635,21.919966941610177
636,3.6432537514292194
772,0.0
835,0.0
898,21.5
961,0.0
1024,0.0
1087,0.0
1188,46510123.87304798
2,1, 1, 1, 0,11, 0.00,60.00,Sunday
7,2.0
629,24.58459096997844
631,10.843007115881514
632,21.500018191775283
634,23.0
635,21.87656268387603
636,6.094641724706374
772,0.0
835,0.0
898,21.5
961,0.0
1024,0.0
1087,0.0
1188,41380362.76450014
2,1, 1, 1, 0,12, 0.00,60.00,Sunday
7,1.375
629,24.391776468300062
631,10.840546601753477
632,21.500000215564814
634,23.0
635,21.817086601734438
636,8.100808778743552
772,0.0
835,0.0
898,21.5
961,0.0
1024,0.0
1087,0.0
1188,42387178.87875244
2,1, 1, 1, 0,13, 0.00,60.00,Sunday
7,2.25
629,24.80980578011536
631,10.711400151217234
632,21.500000000000533
634,23.0
635,21.84064230933418
636,7.924279680600129
772,0.0
835,0.0
898,21.5
961,0.0
1024,0.0
1087,0.0
1188,42959898.57774452
2,1, 1, 1, 0,14, 0.00,60.00,Sunday
7,2.375
629,24.85827750320862
631,10.643455914430803
632,21.49998549485288
634,23.0
635,21.84709706796589
636,7.125462108945205
772,0.0
835,0.0
898,21.5
961,0.0
1024,0.0
1087,0.0
1188,45138142.86028813
2,1, 1, 1, 0,15, 0.00,60.00,Sunday
7,1.375
629,25.37114091632825
631,10.248955243363778
632,21.500043840749765
634,23.0
635,21.890799552161038
636,5.286949922631035
772,0.0
835,0.0
898,21.5
961,0.0
1024,0.0
1087,0.0
1188,49024751.473879434
2,1, 1, 1, 0,16, 0.00,60.00,Sunday
7,1.0
629,25.097061756810024
631,10.027698124372236
632,21.500062257215824
634,23.0
635,21.90712112953243
636,3.8561557486026077
772,0.0
835,0.0
898,21.5
961,0.0
1024,0.0
1087,0.0
1188,46332148.68514422
2,1, 1, 1, 0,17, 0.00,60.00,Sunday
7,0.375
629,25.459451785818054
631,9.853610571278484
632,21.500020048792383
634,23.0
635,21.902278551910886
636,2.794790410380256
772,0.0
835,0.0
898,21.5
961,0.0
1024,0.0
1087,0.0
1188,50250911.12243684
2,1, 1, 1, 0,18, 0.00,60.00,Sunday
7,-0.625
629,25.827161540901052
631,9.445999815332831
632,21.499949951075973
634,23.0
635,21.931440249661264
636,1.4520441386425236
772,0.0
835,0.0
898,21.5
961,0.0
1024,0.0
1087,0.0
1188,55331263.40449146
2,1, 1, 1, 0,19, 0.00,60.00,Sunday
7,-1.625
629,26.21907849257559
631,9.036836707120496
632,21.499999446347854
634,23.0
635,21.98449945311219
636,0.28612856549225474
772,0.0
835,0.0
898,21.5
961,0.0
1024,0.0
1087,0.0
1188,59031550.2892565
2,1, 1, 1, 0,20, 0.00,60.00,Sunday
7,-3.25
629,26.714735881024552
631,8.358623476101716
632,21.499844662624028
634,23.0
635,22.009801662096393
636,-1.2309107187780453
772,0.0
835,0.0
898,21.5
961,0.0
1024,0.0
1087,0.0
1188,68106698.96130681
2,1, 1, 1, 0,21, 0.00,60.00,Sunday
7,-4.625
629,27.533689751211718
631,7.772667364425409
632,21.499929605879124
634,23.0
635,22.11949758912551
636,-2.5260484738598823
772,0.0
835,0.0
898,21.5
961,0.0
1024,0.0
1087,0.0
1188,74674434.87022758
2,1, 1, 1, 0,22, 0.00,60.00,Sunday
7,-5.625
629,27.629118339418707
631,7.4954377188868335
632,21.49999998372303
634,23.0
635,22.150072536805535
636,-3.408384913929262
772,0.0
835,0.0
898,21.5
961,0.0
1024,0.0
1087,0.0
1188,76455971.81668481
2,1, 1, 1, 0,23, 0.00,60.00,Sunday
7,-6.625
629,27.94038719900937
631,6.939245928672262
632,21.49985996893189
634,23.0
635,22.16533526182523
636,-4.541903689872164
772,0.0
835,0.0
898,21.5
961,0.0
1024,0.0
1087,0.0
1188,81850851.31875
2,1, 1, 1, 0,24, 0.00,60.00,Sunday
7,-7.0
629,28.49263529269724
631,6.36877950780721
632,21.499996287613808
634,23.0
635,22.229380986615688
636,-5.373569191585302
772,0.0
835,0.0
898,21.5
961,0.0
1024,0.0
1087,0.0
1188,86730125.37597291
End of Data
 Number of Records Written=         336
