Program Version,EnergyPlus, Version 9.6.0-f420c06a69, YMD=2022.04.08 10:54
1,5,Environment Title[],Latitude[deg],Longitude[deg],Time Zone[],Elevation[m]
2,8,Day of Simulation[],Month[],Day of Month[],DST Indicator[1=yes 0=no],Hour[],StartMinute[],EndMinute[],DayType
3,5,Cumulative Day of Simulation[],Month[],Day of Month[],DST Indicator[1=yes 0=no],DayType  ! When Daily Report Variables Requested
4,2,Cumulative Days of Simulation[],Month[]  ! When Monthly Report Variables Requested
5,1,Cumulative Days of Simulation[] ! When Run Period Report Variables Requested
6,1,Calendar Year of Simulation[] ! When Annual Report Variables Requested
7,1,Environment,Site Outdoor Air Drybulb Temperature [C] !Hourly
646,1,LIVING_UNIT1,Zone Mean Air Temperature [C] !Hourly
647,1,ATTIC_UNIT1,Zone Mean Air Temperature [C] !Hourly
807,1,LIVING_UNIT1,Zone Air Temperature [C] !Hourly
808,1,LIVING_UNIT1,Zone Thermostat Heating Setpoint Temperature [C] !Hourly
871,1,ATTIC_UNIT1,Zone Air Temperature [C] !Hourly
872,1,ATTIC_UNIT1,Zone Thermostat Heating Setpoint Temperature [C] !Hourly
1073,1,LIVING_UNIT1,Zone Thermal Comfort ASHRAE 55 Simple Model Winter Clothes Not Comfortable Time [hr] !Hourly
1074,1,ATTIC_UNIT1,Zone Thermal Comfort ASHRAE 55 Simple Model Winter Clothes Not Comfortable Time [hr] !Hourly
565,1,General:Heating:Electricity [J] !Hourly
End of Data Dictionary
1,DENVER-AURORA-BUCKLEY.AFB_CO_USA ANN HTG 99.6% CONDNS DB,  39.72,-104.75,  -7.00,1726.00
2,1,12,21, 0, 1, 0.00,60.00,WinterDesignDay
7,-17.900000000000002
646,15.951620692010811
647,-13.882090323851457
1073,0.9999999999999999
1074,0.0
807,15.951620692010811
808,21.5
871,-13.882090323851457
872,0.0
565,23283580.229092605
2,1,12,21, 0, 2, 0.00,60.00,WinterDesignDay
7,-17.900000000000002
646,15.900997211778929
647,-13.886911410277293
1073,0.9999999999999999
1074,0.0
807,15.900997211778929
808,21.5
871,-13.886911410277293
872,0.0
565,23283580.229092605
2,1,12,21, 0, 3, 0.00,60.00,WinterDesignDay
7,-17.900000000000002
646,15.860223688695262
647,-13.891597202626878
1073,0.9999999999999999
1074,0.0
807,15.860223688695262
808,21.5
871,-13.891597202626878
872,0.0
565,23283580.229092605
2,1,12,21, 0, 4, 0.00,60.00,WinterDesignDay
7,-17.900000000000002
646,15.82787448909967
647,-13.895519947804504
1073,0.9999999999999999
1074,0.0
807,15.82787448909967
808,21.5
871,-13.895519947804504
872,0.0
565,23283580.229092605
2,1,12,21, 0, 5, 0.00,60.00,WinterDesignDay
7,-17.900000000000002
646,15.817231437734302
647,-13.897637290865461
1073,0.9999999999999999
1074,0.0
807,15.817231437734302
808,21.5
871,-13.897637290865461
872,0.0
565,23283580.229092605
2,1,12,21, 0, 6, 0.00,60.00,WinterDesignDay
7,-17.900000000000002
646,15.857245115798122
647,-13.894700336033885
1073,0.9999999999999999
1074,0.0
807,15.857245115798122
808,21.5
871,-13.894700336033885
872,0.0
565,23283580.229092605
2,1,12,21, 0, 7, 0.00,60.00,WinterDesignDay
7,-17.900000000000002
646,15.660184184369664
647,-13.90494154554979
1073,0.9999999999999999
1074,0.0
807,15.660184184369664
808,21.5
871,-13.90494154554979
872,0.0
565,23283580.229092605
2,1,12,21, 0, 8, 0.00,60.00,WinterDesignDay
7,-17.900000000000002
646,15.335882535215324
647,-13.950556418047752
1073,0.9999999999999999
1074,0.0
807,15.335882535215324
808,21.5
871,-13.950556418047752
872,0.0
565,23283580.229092605
2,1,12,21, 0, 9, 0.00,60.00,WinterDesignDay
7,-17.900000000000002
646,15.06547714202659
647,-13.981850615091885
1073,0.9999999999999999
1074,0.0
807,15.06547714202659
808,21.5
871,-13.981850615091885
872,0.0
565,23283580.229092605
2,1,12,21, 0,10, 0.00,60.00,WinterDesignDay
7,-17.900000000000002
646,14.821593374659827
647,-14.016038110292826
1073,0.9999999999999999
1074,0.0
807,14.821593374659827
808,21.5
871,-14.016038110292826
872,0.0
565,23283580.229092605
2,1,12,21, 0,11, 0.00,60.00,WinterDesignDay
7,-17.900000000000002
646,14.667820747681043
647,-14.040788385338518
1073,0.9999999999999999
1074,0.0
807,14.667820747681043
808,21.5
871,-14.040788385338518
872,0.0
565,23283580.229092605
2,1,12,21, 0,12, 0.00,60.00,WinterDesignDay
7,-17.900000000000002
646,14.815114419692847
647,-14.039727220586647
1073,0.9999999999999999
1074,0.0
807,14.815114419692847
808,21.5
871,-14.039727220586647
872,0.0
565,23283580.229092605
2,1,12,21, 0,13, 0.00,60.00,WinterDesignDay
7,-17.900000000000002
646,15.04319115483083
647,-14.00817088554188
1073,0.9999999999999999
1074,0.0
807,15.04319115483083
808,21.5
871,-14.00817088554188
872,0.0
565,23283580.229092605
2,1,12,21, 0,14, 0.00,60.00,WinterDesignDay
7,-17.900000000000002
646,14.929798908581112
647,-14.008374924375744
1073,0.9999999999999999
1074,0.0
807,14.929798908581112
808,21.5
871,-14.008374924375744
872,0.0
565,23283580.229092605
2,1,12,21, 0,15, 0.00,60.00,WinterDesignDay
7,-17.900000000000002
646,14.561733290038633
647,-14.058002027950664
1073,0.9999999999999999
1074,0.0
807,14.561733290038633
808,21.5
871,-14.058002027950664
872,0.0
565,23283580.229092605
2,1,12,21, 0,16, 0.00,60.00,WinterDesignDay
7,-17.900000000000002
646,14.540464733756151
647,-14.072683958497398
1073,0.9999999999999999
1074,0.0
807,14.540464733756151
808,21.5
871,-14.072683958497398
872,0.0
565,23283580.229092605
2,1,12,21, 0,17, 0.00,60.00,WinterDesignDay
7,-17.900000000000002
646,15.007954004118043
647,-14.028107151657915
1073,0.9999999999999999
1074,0.0
807,15.007954004118043
808,21.5
871,-14.028107151657915
872,0.0
565,23283580.229092605
2,1,12,21, 0,18, 0.00,60.00,WinterDesignDay
7,-17.900000000000002
646,15.353396975944163
647,-13.98314782511658
1073,0.9999999999999999
1074,0.0
807,15.353396975944163
808,21.5
871,-13.98314782511658
872,0.0
565,23283580.229092605
2,1,12,21, 0,19, 0.00,60.00,WinterDesignDay
7,-17.900000000000002
646,15.36725567544727
647,-13.963148204842184
1073,0.9999999999999999
1074,0.0
807,15.36725567544727
808,21.5
871,-13.963148204842184
872,0.0
565,23283580.229092605
2,1,12,21, 0,20, 0.00,60.00,WinterDesignDay
7,-17.900000000000002
646,15.337714209482664
647,-13.969970658769448
1073,0.9999999999999999
1074,0.0
807,15.337714209482664
808,21.5
871,-13.969970658769448
872,0.0
565,23283580.229092605
2,1,12,21, 0,21, 0.00,60.00,WinterDesignDay
7,-17.900000000000002
646,15.413098100296667
647,-13.96054250269676
1073,0.9999999999999999
1074,0.0
807,15.413098100296667
808,21.5
871,-13.96054250269676
872,0.0
565,23283580.229092605
2,1,12,21, 0,22, 0.00,60.00,WinterDesignDay
7,-17.900000000000002
646,15.660931802280636
647,-13.9398413775911
1073,0.9999999999999999
1074,0.0
807,15.660931802280636
808,21.5
871,-13.9398413775911
872,0.0
565,23283580.229092605
2,1,12,21, 0,23, 0.00,60.00,WinterDesignDay
7,-17.900000000000002
646,15.990241461862555
647,-13.888997107322416
1073,0.9999999999999999
1074,0.0
807,15.990241461862555
808,21.5
871,-13.888997107322416
872,0.0
565,23283580.229092605
2,1,12,21, 0,24, 0.00,60.00,WinterDesignDay
7,-17.900000000000002
646,16.01115439948225
647,-13.878304886121972
1073,0.9999999999999999
1074,0.0
807,16.01115439948225
808,21.5
871,-13.878304886121972
872,0.0
565,23283580.229092605
1,DENVER-AURORA-BUCKLEY.AFB_CO_USA ANN CLG .4% CONDNS DB=>MWB,  39.72,-104.75,  -7.00,1726.00
2,1, 7,21, 0, 1, 0.00,60.00,SummerDesignDay
7,21.246
646,23.998750537219788
647,20.468500174731663
1073,0.0
1074,0.0
807,23.998750537219788
808,21.5
871,20.468500174731663
872,0.0
565,0.0
2,1, 7,21, 0, 2, 0.00,60.00,SummerDesignDay
7,20.530666666666665
646,23.99901522223733
647,19.733809479602915
1073,0.0
1074,0.0
807,23.99901522223733
808,21.5
871,19.733809479602915
872,0.0
565,0.0
2,1, 7,21, 0, 3, 0.00,60.00,SummerDesignDay
7,20.024999999999995
646,23.99915313061705
647,19.196351981427586
1073,0.0
1074,0.0
807,23.99915313061705
808,21.5
871,19.196351981427586
872,0.0
565,0.0
2,1, 7,21, 0, 4, 0.00,60.00,SummerDesignDay
7,19.581
646,23.999068443262228
647,18.745635525084435
1073,0.0
1074,0.0
807,23.999068443262228
808,21.5
871,18.745635525084435
872,0.0
565,0.0
2,1, 7,21, 0, 5, 0.00,60.00,SummerDesignDay
7,19.22333333333333
646,23.99822629558612
647,18.369300201091207
1073,0.0
1074,0.0
807,23.99822629558612
808,21.5
871,18.369300201091207
872,0.0
565,0.0
2,1, 7,21, 0, 6, 0.00,60.00,SummerDesignDay
7,19.272666666666666
646,24.000542431767794
647,18.618788801594615
1073,0.0
1074,0.0
807,24.000542431767794
808,21.5
871,18.618788801594615
872,0.0
565,0.0
2,1, 7,21, 0, 7, 0.00,60.00,SummerDesignDay
7,20.00033333333333
646,24.0002942137273
647,20.202531806776687
1073,0.0
1074,0.0
807,24.0002942137273
808,21.5
871,20.202531806776687
872,0.0
565,0.0
2,1, 7,21, 0, 8, 0.00,60.00,SummerDesignDay
7,21.899666666666665
646,23.99998902776393
647,23.601357400187357
1073,0.3333333333333333
1074,0.0
807,23.999989027763935
808,21.500000000000004
871,23.601357400187368
872,0.0
565,0.0
2,1, 7,21, 0, 9, 0.00,60.00,SummerDesignDay
7,24.588333333333328
646,24.000009817517327
647,27.915628232767716
1073,0.9999999999999999
1074,0.0
807,24.000009817517334
808,21.500000000000004
871,27.91562823276772
872,0.0
565,0.0
2,1, 7,21, 0,10, 0.00,60.00,SummerDesignDay
7,27.227666666666664
646,24.000028176474604
647,32.10291854159064
1073,0.9999999999999999
1074,0.0
807,24.000028176474615
808,21.500000000000004
871,32.10291854159065
872,0.0
565,0.0
2,1, 7,21, 0,11, 0.00,60.00,SummerDesignDay
7,29.570999999999998
646,23.999961063143036
647,35.87014557647385
1073,0.9999999999999999
1074,0.0
807,23.999961063143036
808,21.5
871,35.87014557647385
872,0.0
565,0.0
2,1, 7,21, 0,12, 0.00,60.00,SummerDesignDay
7,31.35933333333333
646,23.999997164522444
647,38.60643019814946
1073,0.9999999999999999
1074,0.0
807,23.999997164522444
808,21.5
871,38.60643019814946
872,0.0
565,0.0
2,1, 7,21, 0,13, 0.00,60.00,SummerDesignDay
7,32.666666666666664
646,24.000444414205408
647,39.99807418911245
1073,0.9999999999999999
1074,0.0
807,24.000444414205408
808,21.5
871,39.99807418911245
872,0.0
565,0.0
2,1, 7,21, 0,14, 0.00,60.00,SummerDesignDay
7,33.59166666666667
646,24.073839698415387
647,40.61746797240597
1073,0.9999999999999999
1074,0.0
807,24.073839698415387
808,21.5
871,40.61746797240597
872,0.0
565,0.0
2,1, 7,21, 0,15, 0.00,60.00,SummerDesignDay
7,33.9
646,24.42341464356346
647,40.37159220129939
1073,0.9999999999999999
1074,0.0
807,24.42341464356346
808,21.5
871,40.37159220129939
872,0.0
565,0.0
2,1, 7,21, 0,16, 0.00,60.00,SummerDesignDay
7,33.382
646,24.06397811470548
647,38.93820598147039
1073,0.9999999999999999
1074,0.0
807,24.06397811470548
808,21.5
871,38.93820598147039
872,0.0
565,0.0
2,1, 7,21, 0,17, 0.00,60.00,SummerDesignDay
7,32.321333333333335
646,24.677072240428874
647,36.49591069324489
1073,0.9999999999999999
1074,0.0
807,24.677072240428874
808,21.5
871,36.49591069324489
872,0.0
565,0.0
2,1, 7,21, 0,18, 0.00,60.00,SummerDesignDay
7,30.96466666666666
646,24.707007878514982
647,33.42244681724067
1073,0.9999999999999999
1074,0.0
807,24.707007878514982
808,21.5
871,33.42244681724067
872,0.0
565,0.0
2,1, 7,21, 0,19, 0.00,60.00,SummerDesignDay
7,29.052999999999997
646,24.222855198448485
647,29.8980130278312
1073,0.9999999999999999
1074,0.0
807,24.222855198448485
808,21.5
871,29.8980130278312
872,0.0
565,0.0
2,1, 7,21, 0,20, 0.00,60.00,SummerDesignDay
7,27.17833333333333
646,23.999962448785155
647,27.01787794784748
1073,0.9999999999999999
1074,0.0
807,23.999962448785155
808,21.5
871,27.01787794784748
872,0.0
565,0.0
2,1, 7,21, 0,21, 0.00,60.00,SummerDesignDay
7,25.723
646,23.99947269518866
647,24.91543388580242
1073,0.9999999999999999
1074,0.0
807,23.99947269518866
808,21.5
871,24.91543388580242
872,0.0
565,0.0
2,1, 7,21, 0,22, 0.00,60.00,SummerDesignDay
7,24.391000000000002
646,23.999150395924485
647,23.52685324487071
1073,0.0
1074,0.0
807,23.999150395924485
808,21.5
871,23.52685324487071
872,0.0
565,0.0
2,1, 7,21, 0,23, 0.00,60.00,SummerDesignDay
7,23.231666666666666
646,23.999099590171905
647,22.392630226174017
1073,0.0
1074,0.0
807,23.999099590171905
808,21.5
871,22.392630226174017
872,0.0
565,0.0
2,1, 7,21, 0,24, 0.00,60.00,SummerDesignDay
7,22.195666666666668
646,23.998525478598935
647,21.4628305023373
1073,0.0
1074,0.0
807,23.998525478598935
808,21.5
871,21.4628305023373
872,0.0
565,0.0
1,JAN 1,  39.72,-104.75,  -7.00,1726.00
2,1, 1, 1, 0, 1, 0.00,60.00,Sunday
7,1.75
646,21.494625306263185
647,2.866884518603893
1073,0.9999999999999999
1074,0.0
807,21.494625306263185
808,21.5
871,2.866884518603893
872,0.0
565,5327912.677514332
2,1, 1, 1, 0, 2, 0.00,60.00,Sunday
7,0.6666666666666666
646,21.4952213822328
647,2.9501768899681413
1073,0.9999999999999999
1074,0.0
807,21.4952213822328
808,21.5
871,2.9501768899681413
872,0.0
565,6411984.846314257
2,1, 1, 1, 0, 3, 0.00,60.00,Sunday
7,-2.1666666666666665
646,21.49994839519023
647,0.788860501803253
1073,0.9999999999999999
1074,0.0
807,21.49994839519023
808,21.5
871,0.788860501803253
872,0.0
565,10912377.890243893
2,1, 1, 1, 0, 4, 0.00,60.00,Sunday
7,-2.4166666666666665
646,21.500007822652634
647,0.6845766608627547
1073,0.9999999999999999
1074,0.0
807,21.500007822652634
808,21.5
871,0.6845766608627547
872,0.0
565,11893561.843075968
2,1, 1, 1, 0, 5, 0.00,60.00,Sunday
7,-3.75
646,21.49992751133227
647,1.1456345505461785
1073,0.9999999999999999
1074,0.0
807,21.49992751133227
808,21.5
871,1.1456345505461785
872,0.0
565,12755135.243747905
2,1, 1, 1, 0, 6, 0.00,60.00,Sunday
7,-3.8333333333333335
646,21.49997895076058
647,0.268052202613651
1073,0.9999999999999999
1074,0.0
807,21.49997895076058
808,21.5
871,0.268052202613651
872,0.0
565,13061637.697646411
2,1, 1, 1, 0, 7, 0.00,60.00,Sunday
7,-3.5833333333333335
646,21.499752085630107
647,-0.3293093814180747
1073,0.9999999999999999
1074,0.0
807,21.499752085630107
808,21.5
871,-0.3293093814180747
872,0.0
565,15088712.26335416
2,1, 1, 1, 0, 8, 0.00,60.00,Sunday
7,-4.0
646,21.500054744545228
647,-0.981229901489876
1073,0.9999999999999999
1074,0.0
807,21.500054744545228
808,21.5
871,-0.981229901489876
872,0.0
565,16263020.189678842
2,1, 1, 1, 0, 9, 0.00,60.00,Sunday
7,-0.5
646,21.499169645148555
647,1.8840234950228163
1073,0.5
1074,0.0
807,21.499169645148566
808,21.500000000000004
871,1.8840234950228172
872,0.0
565,8001560.360560981
2,1, 1, 1, 0,10, 0.00,60.00,Sunday
7,6.083333333333333
646,21.497743844590023
647,7.410815670116274
1073,0.0
1074,0.0
807,21.497743844590023
808,21.5
871,7.410815670116274
872,0.0
565,1732736.1430906465
2,1, 1, 1, 0,11, 0.00,60.00,Sunday
7,6.083333333333333
646,21.42672983058071
647,9.341225502148648
1073,0.0
1074,0.0
807,21.42672983058071
808,21.5
871,9.34122550214865
872,0.0
565,2340967.8210071325
2,1, 1, 1, 0,12, 0.00,60.00,Sunday
7,4.0
646,21.504606315389324
647,8.896251013527374
1073,0.0
1074,0.0
807,21.504606315389324
808,21.5
871,8.896251013527374
872,0.0
565,2990012.4740641513
2,1, 1, 1, 0,13, 0.00,60.00,Sunday
7,4.0
646,21.444467957043486
647,9.199208498423257
1073,0.0
1074,0.0
807,21.444467957043486
808,21.5
871,9.199208498423257
872,0.0
565,1513957.6791346238
2,1, 1, 1, 0,14, 0.00,60.00,Sunday
7,5.166666666666667
646,21.404606868135204
647,8.510807690297243
1073,0.0
1074,0.0
807,21.404606868135204
808,21.5
871,8.510807690297243
872,0.0
565,942355.7167445454
2,1, 1, 1, 0,15, 0.00,60.00,Sunday
7,5.883333333333333
646,21.352053438488706
647,7.876607061381471
1073,0.0
1074,0.0
807,21.352053438488706
808,21.5
871,7.876607061381471
872,0.0
565,983631.022939799
2,1, 1, 1, 0,16, 0.00,60.00,Sunday
7,5.333333333333333
646,21.37837792519863
647,7.093063748999117
1073,0.0
1074,0.0
807,21.37837792519863
808,21.5
871,7.093063748999117
872,0.0
565,1175615.8454856137
2,1, 1, 1, 0,17, 0.00,60.00,Sunday
7,3.8333333333333335
646,21.489053281362676
647,5.905529184596305
1073,0.0
1074,0.0
807,21.489053281362676
808,21.5
871,5.905529184596305
872,0.0
565,2007173.478158361
2,1, 1, 1, 0,18, 0.00,60.00,Sunday
7,0.6666666666666666
646,21.500079379740892
647,3.4551559947347052
1073,0.0
1074,0.0
807,21.500079379740892
808,21.5
871,3.455155994734705
872,0.0
565,3729897.1980687315
2,1, 1, 1, 0,19, 0.00,60.00,Sunday
7,-1.0
646,21.50030504913953
647,2.320121438874548
1073,0.5
1074,0.0
807,21.50030504913953
808,21.5
871,2.320121438874548
872,0.0
565,7024493.2052453505
2,1, 1, 1, 0,20, 0.00,60.00,Sunday
7,-1.0
646,21.500199407141437
647,1.829722199775013
1073,0.9999999999999999
1074,0.0
807,21.500199407141437
808,21.5
871,1.829722199775013
872,0.0
565,6756230.430256162
2,1, 1, 1, 0,21, 0.00,60.00,Sunday
7,-1.0
646,21.500281069269576
647,1.4706368772907343
1073,0.9999999999999999
1074,0.0
807,21.500281069269576
808,21.5
871,1.4706368772907343
872,0.0
565,5222832.7315751705
2,1, 1, 1, 0,22, 0.00,60.00,Sunday
7,-1.0
646,21.50001029417142
647,1.4843876193531855
1073,0.9999999999999999
1074,0.0
807,21.50001029417142
808,21.5
871,1.4843876193531855
872,0.0
565,6245376.035484818
2,1, 1, 1, 0,23, 0.00,60.00,Sunday
7,-0.4166666666666667
646,21.500889179383066
647,1.8038307303883467
1073,0.9999999999999999
1074,0.0
807,21.500889179383066
808,21.5
871,1.8038307303883467
872,0.0
565,9672032.347885422
2,1, 1, 1, 0,24, 0.00,60.00,Sunday
7,0.0
646,21.50040673120064
647,2.442607811873293
1073,0.9999999999999999
1074,0.0
807,21.50040673120064
808,21.5
871,2.442607811873293
872,0.0
565,7264520.988708875
1,RUN PERIOD,  39.72,-104.75,  -7.00,1726.00
2,1, 1, 1, 0, 1, 0.00,60.00,Sunday
7,1.75
646,21.494625306263185
647,2.866884518603893
1073,0.9999999999999999
1074,0.0
807,21.494625306263185
808,21.5
871,2.866884518603893
872,0.0
565,5327912.677514332
2,1, 1, 1, 0, 2, 0.00,60.00,Sunday
7,0.6666666666666666
646,21.4952213822328
647,2.9501768899681413
1073,0.9999999999999999
1074,0.0
807,21.4952213822328
808,21.5
871,2.9501768899681413
872,0.0
565,6411984.846314257
2,1, 1, 1, 0, 3, 0.00,60.00,Sunday
7,-2.1666666666666665
646,21.49994839519023
647,0.788860501803253
1073,0.9999999999999999
1074,0.0
807,21.49994839519023
808,21.5
871,0.788860501803253
872,0.0
565,10912377.890243893
2,1, 1, 1, 0, 4, 0.00,60.00,Sunday
7,-2.4166666666666665
646,21.500007822652634
647,0.6845766608627547
1073,0.9999999999999999
1074,0.0
807,21.500007822652634
808,21.5
871,0.6845766608627547
872,0.0
565,11893561.843075968
2,1, 1, 1, 0, 5, 0.00,60.00,Sunday
7,-3.75
646,21.49992751133227
647,1.1456345505461785
1073,0.9999999999999999
1074,0.0
807,21.49992751133227
808,21.5
871,1.1456345505461785
872,0.0
565,12755135.243747905
2,1, 1, 1, 0, 6, 0.00,60.00,Sunday
7,-3.8333333333333335
646,21.49997895076058
647,0.268052202613651
1073,0.9999999999999999
1074,0.0
807,21.49997895076058
808,21.5
871,0.268052202613651
872,0.0
565,13061637.697646411
2,1, 1, 1, 0, 7, 0.00,60.00,Sunday
7,-3.5833333333333335
646,21.499752085630107
647,-0.3293093814180747
1073,0.9999999999999999
1074,0.0
807,21.499752085630107
808,21.5
871,-0.3293093814180747
872,0.0
565,15088712.26335416
2,1, 1, 1, 0, 8, 0.00,60.00,Sunday
7,-4.0
646,21.500054744545228
647,-0.981229901489876
1073,0.9999999999999999
1074,0.0
807,21.500054744545228
808,21.5
871,-0.981229901489876
872,0.0
565,16263020.189678842
2,1, 1, 1, 0, 9, 0.00,60.00,Sunday
7,-0.5
646,21.499169645148555
647,1.8840234950228163
1073,0.5
1074,0.0
807,21.499169645148566
808,21.500000000000004
871,1.8840234950228172
872,0.0
565,8001560.360560981
2,1, 1, 1, 0,10, 0.00,60.00,Sunday
7,6.083333333333333
646,21.497743844590023
647,7.410815670116274
1073,0.0
1074,0.0
807,21.497743844590023
808,21.5
871,7.410815670116274
872,0.0
565,1732736.1430906465
2,1, 1, 1, 0,11, 0.00,60.00,Sunday
7,6.083333333333333
646,21.42672983058071
647,9.341225502148648
1073,0.0
1074,0.0
807,21.42672983058071
808,21.5
871,9.34122550214865
872,0.0
565,2340967.8210071325
2,1, 1, 1, 0,12, 0.00,60.00,Sunday
7,4.0
646,21.504606315389324
647,8.896251013527374
1073,0.0
1074,0.0
807,21.504606315389324
808,21.5
871,8.896251013527374
872,0.0
565,2990012.4740641513
2,1, 1, 1, 0,13, 0.00,60.00,Sunday
7,4.0
646,21.444467957043486
647,9.199208498423257
1073,0.0
1074,0.0
807,21.444467957043486
808,21.5
871,9.199208498423257
872,0.0
565,1513957.6791346238
2,1, 1, 1, 0,14, 0.00,60.00,Sunday
7,5.166666666666667
646,21.404606868135204
647,8.510807690297243
1073,0.0
1074,0.0
807,21.404606868135204
808,21.5
871,8.510807690297243
872,0.0
565,942355.7167445454
2,1, 1, 1, 0,15, 0.00,60.00,Sunday
7,5.883333333333333
646,21.352053438488706
647,7.876607061381471
1073,0.0
1074,0.0
807,21.352053438488706
808,21.5
871,7.876607061381471
872,0.0
565,983631.022939799
2,1, 1, 1, 0,16, 0.00,60.00,Sunday
7,5.333333333333333
646,21.37837792519863
647,7.093063748999117
1073,0.0
1074,0.0
807,21.37837792519863
808,21.5
871,7.093063748999117
872,0.0
565,1175615.8454856137
2,1, 1, 1, 0,17, 0.00,60.00,Sunday
7,3.8333333333333335
646,21.489053281362676
647,5.905529184596305
1073,0.0
1074,0.0
807,21.489053281362676
808,21.5
871,5.905529184596305
872,0.0
565,2007173.478158361
2,1, 1, 1, 0,18, 0.00,60.00,Sunday
7,0.6666666666666666
646,21.500079379740892
647,3.4551559947347052
1073,0.0
1074,0.0
807,21.500079379740892
808,21.5
871,3.455155994734705
872,0.0
565,3729897.1980687315
2,1, 1, 1, 0,19, 0.00,60.00,Sunday
7,-1.0
646,21.50030504913953
647,2.320121438874548
1073,0.5
1074,0.0
807,21.50030504913953
808,21.5
871,2.320121438874548
872,0.0
565,7024493.2052453505
2,1, 1, 1, 0,20, 0.00,60.00,Sunday
7,-1.0
646,21.500199407141437
647,1.829722199775013
1073,0.9999999999999999
1074,0.0
807,21.500199407141437
808,21.5
871,1.829722199775013
872,0.0
565,6756230.430256162
2,1, 1, 1, 0,21, 0.00,60.00,Sunday
7,-1.0
646,21.500281069269576
647,1.4706368772907343
1073,0.9999999999999999
1074,0.0
807,21.500281069269576
808,21.5
871,1.4706368772907343
872,0.0
565,5222832.7315751705
2,1, 1, 1, 0,22, 0.00,60.00,Sunday
7,-1.0
646,21.50001029417142
647,1.4843876193531855
1073,0.9999999999999999
1074,0.0
807,21.50001029417142
808,21.5
871,1.4843876193531855
872,0.0
565,6245376.035484818
2,1, 1, 1, 0,23, 0.00,60.00,Sunday
7,-0.4166666666666667
646,21.500889179383066
647,1.8038307303883467
1073,0.9999999999999999
1074,0.0
807,21.500889179383066
808,21.5
871,1.8038307303883467
872,0.0
565,9672032.347885422
2,1, 1, 1, 0,24, 0.00,60.00,Sunday
7,0.0
646,21.50040673120064
647,2.442607811873293
1073,0.9999999999999999
1074,0.0
807,21.50040673120064
808,21.5
871,2.442607811873293
872,0.0
565,7264520.988708875
End of Data
 Number of Records Written=         960
