Program Version,EnergyPlus, Version 9.6.0-f420c06a69, YMD=2022.04.08 10:54
1,5,Environment Title[],Latitude[deg],Longitude[deg],Time Zone[],Elevation[m]
2,8,Day of Simulation[],Month[],Day of Month[],DST Indicator[1=yes 0=no],Hour[],StartMinute[],EndMinute[],DayType
3,5,Cumulative Day of Simulation[],Month[],Day of Month[],DST Indicator[1=yes 0=no],DayType  ! When Daily Meters Requested
4,2,Cumulative Days of Simulation[],Month[]  ! When Monthly Meters Requested
5,1,Cumulative Days of Simulation[] ! When Run Period Meters Requested
6,1,Calendar Year of Simulation[] ! When Annual Meters Requested
565,1,General:Heating:Electricity [J] !Hourly
End of Data Dictionary
1,DENVER-AURORA-BUCKLEY.AFB_CO_USA ANN HTG 99.6% CONDNS DB,  39.72,-104.75,  -7.00,1726.00
2,1,12,21, 0, 1, 0.00,60.00,WinterDesignDay
565,23283580.229092605
2,1,12,21, 0, 2, 0.00,60.00,WinterDesignDay
565,23283580.229092605
2,1,12,21, 0, 3, 0.00,60.00,WinterDesignDay
565,23283580.229092605
2,1,12,21, 0, 4, 0.00,60.00,WinterDesignDay
565,23283580.229092605
2,1,12,21, 0, 5, 0.00,60.00,WinterDesignDay
565,23283580.229092605
2,1,12,21, 0, 6, 0.00,60.00,WinterDesignDay
565,23283580.229092605
2,1,12,21, 0, 7, 0.00,60.00,WinterDesignDay
565,23283580.229092605
2,1,12,21, 0, 8, 0.00,60.00,WinterDesignDay
565,23283580.229092605
2,1,12,21, 0, 9, 0.00,60.00,WinterDesignDay
565,23283580.229092605
2,1,12,21, 0,10, 0.00,60.00,WinterDesignDay
565,23283580.229092605
2,1,12,21, 0,11, 0.00,60.00,WinterDesignDay
565,23283580.229092605
2,1,12,21, 0,12, 0.00,60.00,WinterDesignDay
565,23283580.229092605
2,1,12,21, 0,13, 0.00,60.00,WinterDesignDay
565,23283580.229092605
2,1,12,21, 0,14, 0.00,60.00,WinterDesignDay
565,23283580.229092605
2,1,12,21, 0,15, 0.00,60.00,WinterDesignDay
565,23283580.229092605
2,1,12,21, 0,16, 0.00,60.00,WinterDesignDay
565,23283580.229092605
2,1,12,21, 0,17, 0.00,60.00,WinterDesignDay
565,23283580.229092605
2,1,12,21, 0,18, 0.00,60.00,WinterDesignDay
565,23283580.229092605
2,1,12,21, 0,19, 0.00,60.00,WinterDesignDay
565,23283580.229092605
2,1,12,21, 0,20, 0.00,60.00,WinterDesignDay
565,23283580.229092605
2,1,12,21, 0,21, 0.00,60.00,WinterDesignDay
565,23283580.229092605
2,1,12,21, 0,22, 0.00,60.00,WinterDesignDay
565,23283580.229092605
2,1,12,21, 0,23, 0.00,60.00,WinterDesignDay
565,23283580.229092605
2,1,12,21, 0,24, 0.00,60.00,WinterDesignDay
565,23283580.229092605
1,DENVER-AURORA-BUCKLEY.AFB_CO_USA ANN CLG .4% CONDNS DB=>MWB,  39.72,-104.75,  -7.00,1726.00
2,1, 7,21, 0, 1, 0.00,60.00,SummerDesignDay
565,0.0
2,1, 7,21, 0, 2, 0.00,60.00,SummerDesignDay
565,0.0
2,1, 7,21, 0, 3, 0.00,60.00,SummerDesignDay
565,0.0
2,1, 7,21, 0, 4, 0.00,60.00,SummerDesignDay
565,0.0
2,1, 7,21, 0, 5, 0.00,60.00,SummerDesignDay
565,0.0
2,1, 7,21, 0, 6, 0.00,60.00,SummerDesignDay
565,0.0
2,1, 7,21, 0, 7, 0.00,60.00,SummerDesignDay
565,0.0
2,1, 7,21, 0, 8, 0.00,60.00,SummerDesignDay
565,0.0
2,1, 7,21, 0, 9, 0.00,60.00,SummerDesignDay
565,0.0
2,1, 7,21, 0,10, 0.00,60.00,SummerDesignDay
565,0.0
2,1, 7,21, 0,11, 0.00,60.00,SummerDesignDay
565,0.0
2,1, 7,21, 0,12, 0.00,60.00,SummerDesignDay
565,0.0
2,1, 7,21, 0,13, 0.00,60.00,SummerDesignDay
565,0.0
2,1, 7,21, 0,14, 0.00,60.00,SummerDesignDay
565,0.0
2,1, 7,21, 0,15, 0.00,60.00,SummerDesignDay
565,0.0
2,1, 7,21, 0,16, 0.00,60.00,SummerDesignDay
565,0.0
2,1, 7,21, 0,17, 0.00,60.00,SummerDesignDay
565,0.0
2,1, 7,21, 0,18, 0.00,60.00,SummerDesignDay
565,0.0
2,1, 7,21, 0,19, 0.00,60.00,SummerDesignDay
565,0.0
2,1, 7,21, 0,20, 0.00,60.00,SummerDesignDay
565,0.0
2,1, 7,21, 0,21, 0.00,60.00,SummerDesignDay
565,0.0
2,1, 7,21, 0,22, 0.00,60.00,SummerDesignDay
565,0.0
2,1, 7,21, 0,23, 0.00,60.00,SummerDesignDay
565,0.0
2,1, 7,21, 0,24, 0.00,60.00,SummerDesignDay
565,0.0
1,JAN 1,  39.72,-104.75,  -7.00,1726.00
2,1, 1, 1, 0, 1, 0.00,60.00,Sunday
565,5327912.677514332
2,1, 1, 1, 0, 2, 0.00,60.00,Sunday
565,6411984.846314257
2,1, 1, 1, 0, 3, 0.00,60.00,Sunday
565,10912377.890243893
2,1, 1, 1, 0, 4, 0.00,60.00,Sunday
565,11893561.843075968
2,1, 1, 1, 0, 5, 0.00,60.00,Sunday
565,12755135.243747905
2,1, 1, 1, 0, 6, 0.00,60.00,Sunday
565,13061637.697646411
2,1, 1, 1, 0, 7, 0.00,60.00,Sunday
565,15088712.26335416
2,1, 1, 1, 0, 8, 0.00,60.00,Sunday
565,16263020.189678842
2,1, 1, 1, 0, 9, 0.00,60.00,Sunday
565,8001560.360560981
2,1, 1, 1, 0,10, 0.00,60.00,Sunday
565,1732736.1430906465
2,1, 1, 1, 0,11, 0.00,60.00,Sunday
565,2340967.8210071325
2,1, 1, 1, 0,12, 0.00,60.00,Sunday
565,2990012.4740641513
2,1, 1, 1, 0,13, 0.00,60.00,Sunday
565,1513957.6791346238
2,1, 1, 1, 0,14, 0.00,60.00,Sunday
565,942355.7167445454
2,1, 1, 1, 0,15, 0.00,60.00,Sunday
565,983631.022939799
2,1, 1, 1, 0,16, 0.00,60.00,Sunday
565,1175615.8454856137
2,1, 1, 1, 0,17, 0.00,60.00,Sunday
565,2007173.478158361
2,1, 1, 1, 0,18, 0.00,60.00,Sunday
565,3729897.1980687315
2,1, 1, 1, 0,19, 0.00,60.00,Sunday
565,7024493.2052453505
2,1, 1, 1, 0,20, 0.00,60.00,Sunday
565,6756230.430256162
2,1, 1, 1, 0,21, 0.00,60.00,Sunday
565,5222832.7315751705
2,1, 1, 1, 0,22, 0.00,60.00,Sunday
565,6245376.035484818
2,1, 1, 1, 0,23, 0.00,60.00,Sunday
565,9672032.347885422
2,1, 1, 1, 0,24, 0.00,60.00,Sunday
565,7264520.988708875
1,RUN PERIOD,  39.72,-104.75,  -7.00,1726.00
2,1, 1, 1, 0, 1, 0.00,60.00,Sunday
565,5327912.677514332
2,1, 1, 1, 0, 2, 0.00,60.00,Sunday
565,6411984.846314257
2,1, 1, 1, 0, 3, 0.00,60.00,Sunday
565,10912377.890243893
2,1, 1, 1, 0, 4, 0.00,60.00,Sunday
565,11893561.843075968
2,1, 1, 1, 0, 5, 0.00,60.00,Sunday
565,12755135.243747905
2,1, 1, 1, 0, 6, 0.00,60.00,Sunday
565,13061637.697646411
2,1, 1, 1, 0, 7, 0.00,60.00,Sunday
565,15088712.26335416
2,1, 1, 1, 0, 8, 0.00,60.00,Sunday
565,16263020.189678842
2,1, 1, 1, 0, 9, 0.00,60.00,Sunday
565,8001560.360560981
2,1, 1, 1, 0,10, 0.00,60.00,Sunday
565,1732736.1430906465
2,1, 1, 1, 0,11, 0.00,60.00,Sunday
565,2340967.8210071325
2,1, 1, 1, 0,12, 0.00,60.00,Sunday
565,2990012.4740641513
2,1, 1, 1, 0,13, 0.00,60.00,Sunday
565,1513957.6791346238
2,1, 1, 1, 0,14, 0.00,60.00,Sunday
565,942355.7167445454
2,1, 1, 1, 0,15, 0.00,60.00,Sunday
565,983631.022939799
2,1, 1, 1, 0,16, 0.00,60.00,Sunday
565,1175615.8454856137
2,1, 1, 1, 0,17, 0.00,60.00,Sunday
565,2007173.478158361
2,1, 1, 1, 0,18, 0.00,60.00,Sunday
565,3729897.1980687315
2,1, 1, 1, 0,19, 0.00,60.00,Sunday
565,7024493.2052453505
2,1, 1, 1, 0,20, 0.00,60.00,Sunday
565,6756230.430256162
2,1, 1, 1, 0,21, 0.00,60.00,Sunday
565,5222832.7315751705
2,1, 1, 1, 0,22, 0.00,60.00,Sunday
565,6245376.035484818
2,1, 1, 1, 0,23, 0.00,60.00,Sunday
565,9672032.347885422
2,1, 1, 1, 0,24, 0.00,60.00,Sunday
565,7264520.988708875
End of Data
 Number of Records Written=          96
