Program Version,EnergyPlus, Version 9.6.0-f420c06a69, YMD=2022.04.13 21:19
1,5,Environment Title[],Latitude[deg],Longitude[deg],Time Zone[],Elevation[m]
2,8,Day of Simulation[],Month[],Day of Month[],DST Indicator[1=yes 0=no],Hour[],StartMinute[],EndMinute[],DayType
3,5,Cumulative Day of Simulation[],Month[],Day of Month[],DST Indicator[1=yes 0=no],DayType  ! When Daily Report Variables Requested
4,2,Cumulative Days of Simulation[],Month[]  ! When Monthly Report Variables Requested
5,1,Cumulative Days of Simulation[] ! When Run Period Report Variables Requested
6,1,Calendar Year of Simulation[] ! When Annual Report Variables Requested
7,1,Environment,Site Outdoor Air Drybulb Temperature [C] !Hourly
629,1,GARAGE ZONE,Zone Mean Air Temperature [C] !Hourly
630,1,LIVING ZONE,Zone Mean Air Temperature [C] !Hourly
631,1,UNFINISHED ATTIC ZONE,Zone Mean Air Temperature [C] !Hourly
766,1,GARAGE ZONE,Zone Thermostat Heating Setpoint Temperature [C] !Hourly
829,1,LIVING ZONE,Zone Thermostat Heating Setpoint Temperature [C] !Hourly
892,1,UNFINISHED ATTIC ZONE,Zone Thermostat Heating Setpoint Temperature [C] !Hourly
956,1,Heating:Electricity [J] !Hourly
End of Data Dictionary
1,RUN PERIOD 1,  39.72,-104.75,  -7.00,1726.00
2,1, 1, 1, 0, 1, 0.00,60.00,Sunday
7,1.875
629,14.778510793588278
630,15.70793924896931
631,-1.9952392207259841
766,0.0
829,21.5
892,0.0
956,4320000.0
2,1, 1, 1, 0, 2, 0.00,60.00,Sunday
7,0.5
629,13.914888843386755
630,14.997588703755827
631,-1.2957348966239937
766,0.0
829,21.5
892,0.0
956,4320000.0
2,1, 1, 1, 0, 3, 0.00,60.00,Sunday
7,-2.25
629,12.884019040097995
630,13.890345673029092
631,-1.9848779161200398
766,0.0
829,21.5
892,0.0
956,4320000.0
2,1, 1, 1, 0, 4, 0.00,60.00,Sunday
7,-2.375
629,12.08797010371975
630,13.26372267185278
631,-2.8001743619985353
766,0.0
829,21.5
892,0.0
956,4320000.0
2,1, 1, 1, 0, 5, 0.00,60.00,Sunday
7,-3.875
629,11.411579976463674
630,12.626924543959966
631,-3.6594585794034757
766,0.0
829,21.5
892,0.0
956,4320000.0
2,1, 1, 1, 0, 6, 0.00,60.00,Sunday
7,-3.75
629,10.63711922948057
630,12.463631139727536
631,-4.743881246969753
766,0.0
829,21.500000000000007
892,0.0
956,4320000.0
2,1, 1, 1, 0, 7, 0.00,60.00,Sunday
7,-3.625
629,10.001017677339286
630,13.100885428241554
631,-5.189747954707755
766,0.0
829,21.5
892,0.0
956,4320000.0
2,1, 1, 1, 0, 8, 0.00,60.00,Sunday
7,-4.0
629,9.375600729236371
630,12.96499299911223
631,-5.394864205922309
766,0.0
829,21.5
892,0.0
956,4320000.0
2,1, 1, 1, 0, 9, 0.00,60.00,Sunday
7,-0.25
629,9.137964310565
630,11.914278635866166
631,-3.4931827455592512
766,0.0
829,21.5
892,0.0
956,4320000.0
2,1, 1, 1, 0,10, 0.00,60.00,Sunday
7,6.375
629,9.436372822457745
630,12.62661586198829
631,2.7586408172914725
766,0.0
829,21.5
892,0.0
956,4320000.0
2,1, 1, 1, 0,11, 0.00,60.00,Sunday
7,5.875
629,10.03431022229461
630,13.651523084733766
631,8.660249234776886
766,0.0
829,21.5
892,0.0
956,4320000.0
2,1, 1, 1, 0,12, 0.00,60.00,Sunday
7,4.0
629,10.754120623618466
630,14.484942381632386
631,11.502207335555322
766,0.0
829,21.5
892,0.0
956,4320000.0
2,1, 1, 1, 0,13, 0.00,60.00,Sunday
7,4.0
629,11.940282105377765
630,15.331541332953577
631,13.130715060448544
766,0.0
829,21.5
892,0.0
956,4320000.0
2,1, 1, 1, 0,14, 0.00,60.00,Sunday
7,5.25
629,13.138172299919098
630,15.941598860015443
631,13.66580674920061
766,0.0
829,21.5
892,0.0
956,4320000.0
2,1, 1, 1, 0,15, 0.00,60.00,Sunday
7,5.875000000000001
629,13.976203551837267
630,16.744532604214022
631,13.235114558048828
766,0.0
829,21.5
892,0.0
956,4320000.0
2,1, 1, 1, 0,16, 0.00,60.00,Sunday
7,5.3
629,14.298070665928638
630,17.183179247117323
631,12.142879080106965
766,0.0
829,21.5
892,0.0
956,4320000.0
2,1, 1, 1, 0,17, 0.00,60.00,Sunday
7,3.75
629,14.23895228001606
630,16.880149628786132
631,9.768372304983064
766,0.0
829,21.5
892,0.0
956,4320000.0
2,1, 1, 1, 0,18, 0.00,60.00,Sunday
7,0.5
629,13.154955229200466
630,15.725818085302741
631,5.532644760585331
766,0.0
829,21.5
892,0.0
956,4320000.0
2,1, 1, 1, 0,19, 0.00,60.00,Sunday
7,-1.0
629,11.882955138067143
630,14.783291147435474
631,2.063906397967846
766,0.0
829,21.5
892,0.0
956,4320000.0
2,1, 1, 1, 0,20, 0.00,60.00,Sunday
7,-1.0
629,10.992511245429075
630,14.229535171513843
631,-0.16644532584909758
766,0.0
829,21.5
892,0.0
956,4320000.0
2,1, 1, 1, 0,21, 0.00,60.00,Sunday
7,-1.0
629,10.212539161286186
630,13.661421752254235
631,-1.705412893673135
766,0.0
829,21.5
892,0.0
956,4320000.0
2,1, 1, 1, 0,22, 0.00,60.00,Sunday
7,-1.0
629,9.680029790064259
630,13.180926939974963
631,-2.5165134138880267
766,0.0
829,21.5
892,0.0
956,4320000.0
2,1, 1, 1, 0,23, 0.00,60.00,Sunday
7,-0.375
629,9.301190172915163
630,12.7724012724218
631,-2.7289381300095297
766,0.0
829,21.5
892,0.0
956,4320000.0
2,1, 1, 1, 0,24, 0.00,60.00,Sunday
7,0.0
629,9.034416091839365
630,12.472935093269811
631,-2.6830173817475798
766,0.0
829,21.5
892,0.0
956,4320000.0
End of Data
 Number of Records Written=         192
