Program Version,EnergyPlus, Version 9.6.0-f420c06a69, YMD=2022.03.02 12:08
1,5,Environment Title[],Latitude[deg],Longitude[deg],Time Zone[],Elevation[m]
2,8,Day of Simulation[],Month[],Day of Month[],DST Indicator[1=yes 0=no],Hour[],StartMinute[],EndMinute[],DayType
3,5,Cumulative Day of Simulation[],Month[],Day of Month[],DST Indicator[1=yes 0=no],DayType  ! When Daily Report Variables Requested
4,2,Cumulative Days of Simulation[],Month[]  ! When Monthly Report Variables Requested
5,1,Cumulative Days of Simulation[] ! When Run Period Report Variables Requested
6,1,Calendar Year of Simulation[] ! When Annual Report Variables Requested
7,1,Environment,Site Outdoor Air Drybulb Temperature [C] !Hourly
8,1,LIVING_UNIT1,Zone Total Internal Convective Heating Energy [J] !Hourly
9,1,LIVING_UNIT1,Zone Total Internal Convective Heating Rate [W] !Hourly
10,1,ATTIC_UNIT1,Zone Total Internal Convective Heating Energy [J] !Hourly
11,1,ATTIC_UNIT1,Zone Total Internal Convective Heating Rate [W] !Hourly
12,1,CRAWLSPACE_UNIT1,Zone Total Internal Convective Heating Energy [J] !Hourly
13,1,CRAWLSPACE_UNIT1,Zone Total Internal Convective Heating Rate [W] !Hourly
14,1,LIVING_UNIT1,Zone People Total Heating Energy [J] !Hourly
469,1,WALL_LDF_1.UNIT1,Surface Inside Face Convection Heat Transfer Coefficient [W/m2-K] !Hourly
470,1,WALL_LDF_1.UNIT1,Surface Outside Face Convection Heat Transfer Coefficient [W/m2-K] !Hourly
471,1,WALL_SDR_1.UNIT1,Surface Inside Face Convection Heat Transfer Coefficient [W/m2-K] !Hourly
472,1,WALL_SDR_1.UNIT1,Surface Outside Face Convection Heat Transfer Coefficient [W/m2-K] !Hourly
473,1,WALL_LDB_1.UNIT1,Surface Inside Face Convection Heat Transfer Coefficient [W/m2-K] !Hourly
474,1,WALL_LDB_1.UNIT1,Surface Outside Face Convection Heat Transfer Coefficient [W/m2-K] !Hourly
475,1,WALL_SDL_1.UNIT1,Surface Inside Face Convection Heat Transfer Coefficient [W/m2-K] !Hourly
476,1,WALL_SDL_1.UNIT1,Surface Outside Face Convection Heat Transfer Coefficient [W/m2-K] !Hourly
477,1,WALL_LDF_2.UNIT1,Surface Inside Face Convection Heat Transfer Coefficient [W/m2-K] !Hourly
478,1,WALL_LDF_2.UNIT1,Surface Outside Face Convection Heat Transfer Coefficient [W/m2-K] !Hourly
479,1,WALL_SDR_2.UNIT1,Surface Inside Face Convection Heat Transfer Coefficient [W/m2-K] !Hourly
480,1,WALL_SDR_2.UNIT1,Surface Outside Face Convection Heat Transfer Coefficient [W/m2-K] !Hourly
481,1,WALL_LDB_2.UNIT1,Surface Inside Face Convection Heat Transfer Coefficient [W/m2-K] !Hourly
482,1,WALL_LDB_2.UNIT1,Surface Outside Face Convection Heat Transfer Coefficient [W/m2-K] !Hourly
483,1,WALL_SDL_2.UNIT1,Surface Inside Face Convection Heat Transfer Coefficient [W/m2-K] !Hourly
484,1,WALL_SDL_2.UNIT1,Surface Outside Face Convection Heat Transfer Coefficient [W/m2-K] !Hourly
485,1,INTER ZONE FLOOR 1,Surface Inside Face Convection Heat Transfer Coefficient [W/m2-K] !Hourly
486,1,FLOOR_UNIT1,Surface Inside Face Convection Heat Transfer Coefficient [W/m2-K] !Hourly
487,1,CEILING_UNIT1,Surface Inside Face Convection Heat Transfer Coefficient [W/m2-K] !Hourly
488,1,INTERNALMASS_UNIT1,Surface Inside Face Convection Heat Transfer Coefficient [W/m2-K] !Hourly
489,1,DOOR_LDB_UNIT1,Surface Inside Face Convection Heat Transfer Coefficient [W/m2-K] !Hourly
490,1,DOOR_LDB_UNIT1,Surface Outside Face Convection Heat Transfer Coefficient [W/m2-K] !Hourly
491,1,WINDOW_LDF_1.UNIT1,Surface Inside Face Convection Heat Transfer Coefficient [W/m2-K] !Hourly
492,1,WINDOW_LDF_1.UNIT1,Surface Outside Face Convection Heat Transfer Coefficient [W/m2-K] !Hourly
493,1,WINDOW_LDB_1.UNIT1,Surface Inside Face Convection Heat Transfer Coefficient [W/m2-K] !Hourly
494,1,WINDOW_LDB_1.UNIT1,Surface Outside Face Convection Heat Transfer Coefficient [W/m2-K] !Hourly
495,1,WINDOW_SDR_1.UNIT1,Surface Inside Face Convection Heat Transfer Coefficient [W/m2-K] !Hourly
496,1,WINDOW_SDR_1.UNIT1,Surface Outside Face Convection Heat Transfer Coefficient [W/m2-K] !Hourly
497,1,WINDOW_SDL_1.UNIT1,Surface Inside Face Convection Heat Transfer Coefficient [W/m2-K] !Hourly
498,1,WINDOW_SDL_1.UNIT1,Surface Outside Face Convection Heat Transfer Coefficient [W/m2-K] !Hourly
499,1,WINDOW_LDF_2.UNIT1,Surface Inside Face Convection Heat Transfer Coefficient [W/m2-K] !Hourly
500,1,WINDOW_LDF_2.UNIT1,Surface Outside Face Convection Heat Transfer Coefficient [W/m2-K] !Hourly
501,1,WINDOW_LDB_2.UNIT1,Surface Inside Face Convection Heat Transfer Coefficient [W/m2-K] !Hourly
502,1,WINDOW_LDB_2.UNIT1,Surface Outside Face Convection Heat Transfer Coefficient [W/m2-K] !Hourly
503,1,WINDOW_SDR_2.UNIT1,Surface Inside Face Convection Heat Transfer Coefficient [W/m2-K] !Hourly
504,1,WINDOW_SDR_2.UNIT1,Surface Outside Face Convection Heat Transfer Coefficient [W/m2-K] !Hourly
505,1,WINDOW_SDL_2.UNIT1,Surface Inside Face Convection Heat Transfer Coefficient [W/m2-K] !Hourly
506,1,WINDOW_SDL_2.UNIT1,Surface Outside Face Convection Heat Transfer Coefficient [W/m2-K] !Hourly
507,1,ROOF_RIGHT_UNIT1,Surface Inside Face Convection Heat Transfer Coefficient [W/m2-K] !Hourly
508,1,ROOF_RIGHT_UNIT1,Surface Outside Face Convection Heat Transfer Coefficient [W/m2-K] !Hourly
509,1,ROOF_LEFT_UNIT1,Surface Inside Face Convection Heat Transfer Coefficient [W/m2-K] !Hourly
510,1,ROOF_LEFT_UNIT1,Surface Outside Face Convection Heat Transfer Coefficient [W/m2-K] !Hourly
511,1,iz-CEILING_UNIT1,Surface Inside Face Convection Heat Transfer Coefficient [W/m2-K] !Hourly
512,1,ROOF_FRONT_UNIT1,Surface Inside Face Convection Heat Transfer Coefficient [W/m2-K] !Hourly
513,1,ROOF_FRONT_UNIT1,Surface Outside Face Convection Heat Transfer Coefficient [W/m2-K] !Hourly
514,1,ROOF_BACK_UNIT1,Surface Inside Face Convection Heat Transfer Coefficient [W/m2-K] !Hourly
515,1,ROOF_BACK_UNIT1,Surface Outside Face Convection Heat Transfer Coefficient [W/m2-K] !Hourly
516,1,BGWALL_UPPER_LDF,Surface Inside Face Convection Heat Transfer Coefficient [W/m2-K] !Hourly
517,1,BGWALL_UPPER_LDF,Surface Outside Face Convection Heat Transfer Coefficient [W/m2-K] !Hourly
518,1,BGWALL_LOWER_LDF,Surface Inside Face Convection Heat Transfer Coefficient [W/m2-K] !Hourly
519,1,BGWALL_UPPER_SDR,Surface Inside Face Convection Heat Transfer Coefficient [W/m2-K] !Hourly
520,1,BGWALL_UPPER_SDR,Surface Outside Face Convection Heat Transfer Coefficient [W/m2-K] !Hourly
521,1,BGWALL_LOWER_SDR,Surface Inside Face Convection Heat Transfer Coefficient [W/m2-K] !Hourly
522,1,BGWALL_UPPER_LDB,Surface Inside Face Convection Heat Transfer Coefficient [W/m2-K] !Hourly
523,1,BGWALL_UPPER_LDB,Surface Outside Face Convection Heat Transfer Coefficient [W/m2-K] !Hourly
524,1,BGWALL_LOWER_LDB,Surface Inside Face Convection Heat Transfer Coefficient [W/m2-K] !Hourly
525,1,BGWALL_UPPER_SDL,Surface Inside Face Convection Heat Transfer Coefficient [W/m2-K] !Hourly
526,1,BGWALL_UPPER_SDL,Surface Outside Face Convection Heat Transfer Coefficient [W/m2-K] !Hourly
527,1,BGWALL_LOWER_SDL,Surface Inside Face Convection Heat Transfer Coefficient [W/m2-K] !Hourly
528,1,EXTFLOOR_UNIT1,Surface Inside Face Convection Heat Transfer Coefficient [W/m2-K] !Hourly
529,1,iz-FLOOR_UNIT1,Surface Inside Face Convection Heat Transfer Coefficient [W/m2-K] !Hourly
605,1,MAIN DX HEATING COIL_UNIT1,Heating Coil Heating Rate [W] !Hourly
606,1,MAIN DX HEATING COIL_UNIT1,Heating Coil Heating Energy [J] !Hourly
619,1,MAIN DX HEATING COIL_UNIT1,Heating Coil Electricity Rate [W] !Hourly
715,1,LIVING_UNIT1,Zone Mean Air Temperature [C] !Hourly
716,1,ATTIC_UNIT1,Zone Mean Air Temperature [C] !Hourly
717,1,CRAWLSPACE_UNIT1,Zone Mean Air Temperature [C] !Hourly
755,1,LIVING_UNIT1,AFN Zone Infiltration Sensible Heat Loss Rate [W] !Hourly
756,1,LIVING_UNIT1,AFN Zone Mixing Sensible Heat Loss Energy [J] !Hourly
757,1,ATTIC_UNIT1,AFN Zone Infiltration Sensible Heat Loss Rate [W] !Hourly
758,1,ATTIC_UNIT1,AFN Zone Mixing Sensible Heat Loss Energy [J] !Hourly
759,1,CRAWLSPACE_UNIT1,AFN Zone Infiltration Sensible Heat Loss Rate [W] !Hourly
760,1,CRAWLSPACE_UNIT1,AFN Zone Mixing Sensible Heat Loss Energy [J] !Hourly
883,1,LIVING_UNIT1,Zone Thermostat Heating Setpoint Temperature [C] !Hourly
946,1,ATTIC_UNIT1,Zone Thermostat Heating Setpoint Temperature [C] !Hourly
1009,1,CRAWLSPACE_UNIT1,Zone Thermostat Heating Setpoint Temperature [C] !Hourly
1210,1,LIVING_UNIT1,Zone Heating Setpoint Not Met While Occupied Time [hr] !Hourly
1211,1,ATTIC_UNIT1,Zone Heating Setpoint Not Met While Occupied Time [hr] !Hourly
1212,1,CRAWLSPACE_UNIT1,Zone Heating Setpoint Not Met While Occupied Time [hr] !Hourly
1302,1,SUPP HEATING COIL_UNIT1,Heating Coil Heating Energy [J] !Hourly
1303,1,SUPP HEATING COIL_UNIT1,Heating Coil Heating Rate [W] !Hourly
1305,1,SUPP HEATING COIL_UNIT1,Heating Coil Electricity Rate [W] !Hourly
622,1,Heating:Electricity [J] !Hourly
End of Data Dictionary
1,DENVER-AURORA-BUCKLEY.AFB_CO_USA ANN HTG 99.6% CONDNS DB,  39.74,-105.18,  -7.00,1829.00
2,1,12,21, 0, 1, 0.00,60.00,WinterDesignDay
7,-17.9
8,1271107.9903677292
9,353.08555287992476
10,0.0
11,0.0
12,0.0
13,0.0
14,1266624.0
469,1.991932252800373
470,4.3664699144649735
471,1.9924496575513395
472,4.36647752452768
473,1.9898187384847574
474,4.533506901570606
475,1.9924458262617026
476,4.366479925465531
477,1.991016651985544
478,5.243861519393471
479,1.9915345531248465
480,5.243866882730185
481,1.9892041433182053
482,5.149025386124009
483,1.9915307019557946
484,5.243868574705279
485,1.0842380908189628
486,1.1144816633535088
487,2.143980598401464
488,1.756497481478018
489,2.5804836050223003
490,4.499488285880679
491,2.097379836388636
492,4.45023980489824
493,2.09748717317919
494,4.545993535313446
495,2.097254089043505
496,4.451622129857954
497,2.0975019920950295
498,4.450195354443919
499,2.101118412363361
500,5.098198686710983
501,2.1001354434751054
502,4.995801815014131
503,2.1010070517285593
504,5.099361516029844
505,2.1012395681534324
506,5.098161210200923
507,1.854526563086183
508,5.627500632858232
509,1.854526563086183
510,5.627500632858232
511,0.9836588765039308
512,2.450770848598987
513,7.132675866618381
514,2.4581786801163092
515,6.81963853620757
516,2.498998497388918
517,3.76754340522312
518,2.9879587052840604
519,2.498684239945769
520,3.7676633499701655
521,2.988082523350693
522,2.522235777587226
523,4.345037685671114
524,2.9879689017246864
525,2.498684239945769
526,3.7676633499701655
527,2.988082523350693
528,2.741214792183654
529,1.2890506797418042
715,16.827002171500077
716,-14.34591462036212
717,1.0894185906666511
1210,1.0
1211,0.0
1212,0.0
605,0.0
606,0.0
619,0.0
755,1302.7852183851055
756,2149.3086966255496
757,1549.7677126268904
758,0.0
759,3250.6872016663747
760,0.0
883,21.0
946,0.0
1009,0.0
1302,25670068.439722646
1303,7130.574566589624
1305,7130.574566589624
622,26390068.439722646
2,1,12,21, 0, 2, 0.00,60.00,WinterDesignDay
7,-17.9
8,1250270.304982354
9,347.29730693954275
10,0.0
11,0.0
12,0.0
13,0.0
14,1266624.0
469,2.030708038722942
470,4.366166484297713
471,2.0311885160091245
472,4.366174071518516
473,2.028672540552563
474,4.533223306232714
475,2.0311848316970744
476,4.366176473987564
477,2.0298276430479145
478,5.243647118936059
479,2.030308551495791
480,5.243652464392742
481,2.0280816486669875
482,5.1488029112933305
483,2.030304848258431
484,5.243654157148367
485,1.1101286639190415
486,1.137533520455549
487,2.1977196703656405
488,1.7970483586263555
489,2.602441062860001
490,4.498224857537236
491,2.105419300108058
492,4.448830426799821
493,2.1055287079336065
494,4.544620126529274
495,2.105290013163435
496,4.450219593700572
497,2.105534929767493
498,4.448789887146237
499,2.1091425237768773
500,5.0969992641962785
501,2.108165648531098
502,4.994574092523942
503,2.1090273758751437
504,5.098167798434076
505,2.10925711636446
506,5.096965157896893
507,1.8550674646340803
508,5.62736071788726
509,1.8550674646340803
510,5.62736071788726
511,0.9843402237878623
512,2.4517803069841277
513,7.1326713038249325
514,2.4591817004400918
515,6.819634653561398
516,2.4989588016078192
517,3.7677284898606076
518,2.9878468444172377
519,2.4986449936225283
520,3.7678481860453554
521,2.987970531789472
522,2.522200636174939
523,4.345181909389625
524,2.987857043288469
525,2.4986449936225283
526,3.7678481860453554
527,2.987970531789472
528,2.74104634197848
529,1.289200988184867
715,16.861176829231248
716,-14.332824407055593
717,1.0943965237505546
1210,1.0
1211,0.0
1212,0.0
605,0.0
606,0.0
619,0.0
755,1306.0758252624066
756,2157.370152755696
757,1555.3308344564412
758,0.0
759,3251.564017543221
760,0.0
883,21.0
946,0.0
1009,0.0
1302,25670068.439722646
1303,7130.574566589624
1305,7130.574566589624
622,26390068.439722646
2,1,12,21, 0, 3, 0.00,60.00,WinterDesignDay
7,-17.9
8,1248588.3144510144
9,346.830087347504
10,0.0
11,0.0
12,0.0
13,0.0
14,1266624.0
469,2.0277057939514815
470,4.365932598988358
471,2.028185766463514
472,4.365940031143506
473,2.025671083707393
474,4.533004779148414
475,2.028182078664497
476,4.365942434819077
477,2.026824880498846
478,5.243482273676912
479,2.0273052818872204
480,5.243487507953852
481,2.0250798615602426
482,5.148631782920014
483,2.0273015751394645
484,5.243489201324829
485,1.108541382898947
486,1.1356183358565368
487,2.193472223416805
488,1.790737552702966
489,2.599955766670961
490,4.498088638082468
491,2.104155913145675
492,4.4490650875126505
493,2.1042682744974313
494,4.544847824656453
495,2.1040315404074406
496,4.450451622726779
497,2.104276830884003
498,4.4490223951233965
499,2.107881533490668
500,5.097199740649627
501,2.106906952272295
502,4.994778199830551
503,2.1077713087153267
504,5.098366069598876
505,2.1080013986746353
506,5.097163814021217
507,1.8550767836413282
508,5.627302534333927
509,1.8550767836413282
510,5.627302534333927
511,0.9837353002738222
512,2.451706299382872
513,7.1326852469478235
514,2.4591061780707504
515,6.8196471036793564
516,2.4990111182314916
517,3.7678774874531777
518,2.9876872182845746
519,2.4986977553686716
520,3.7679969895520062
521,2.987810785034651
522,2.5222561854158707
523,4.345297294179865
524,2.9876974204062137
525,2.4986977553686716
526,3.7679969895520062
527,2.9878107850346516
528,2.7411286815396734
529,1.2893881125639028
715,16.85099645954115
716,-14.332903484590378
717,1.096797182867142
1210,1.0
1211,0.0
1212,0.0
605,0.0
606,0.0
619,0.0
755,1305.2821965234043
756,2154.7372189652515
757,1555.3690174914125
758,0.0
759,3251.9675519898647
760,0.0
883,21.0
946,0.0
1009,0.0
1302,25670068.439722646
1303,7130.574566589624
1305,7130.574566589624
622,26390068.439722646
2,1,12,21, 0, 4, 0.00,60.00,WinterDesignDay
7,-17.9
8,1246123.3645439753
9,346.14537903999314
10,0.0
11,0.0
12,0.0
13,0.0
14,1266624.0
469,2.0281029585136707
470,4.365778258001636
471,2.028581052794925
472,4.365785483813599
473,2.0260697659037215
474,4.532860654583545
475,2.0285773675466134
476,4.365787888316285
477,2.027223466705064
478,5.2433738580921485
479,2.027701986083576
480,5.243378945489837
481,2.0254795225436837
482,5.1485191837886575
483,2.0276982819043026
484,5.243380639285957
485,1.109046706909552
486,1.1359990884207312
487,2.194071518794699
488,1.7893396589048396
489,2.60031654973359
490,4.498021722312326
491,2.104340772110163
492,4.448873559824033
493,2.104452611427221
494,4.544662213591224
495,2.104215808662441
496,4.450260967150317
497,2.1044610656166154
498,4.4488313445486405
499,2.108063217817982
500,5.097041926552994
501,2.107089078039566
502,4.994615946210283
503,2.107952413904969
504,5.098208942598264
505,2.1081824710994272
506,5.097006382773019
507,1.8545937821043001
508,5.6272476999364756
509,1.8545937821043001
510,5.6272476999364756
511,0.98327123333825
512,2.451433483373588
513,7.1327006427443305
514,2.458833320770532
515,6.819660938712771
516,2.4989320405145277
517,3.7680142096980083
518,2.9876317404763606
519,2.4986190126310177
520,3.76813353501601
521,2.9877552091388146
522,2.5221830500794047
523,4.345402939559576
524,2.9876419452490888
525,2.4986190126310177
526,3.76813353501601
527,2.9877552091388146
528,2.741193078749258
529,1.2895172971247995
715,16.84523883993635
716,-14.332440357654136
717,1.0982837429088104
1210,1.0
1211,0.0
1212,0.0
605,0.0
606,0.0
619,0.0
755,1304.822996988029
756,2153.2047420097333
757,1555.5728915537638
758,0.0
759,3252.2178097823717
760,0.0
883,21.0
946,0.0
1009,0.0
1302,25670068.439722646
1303,7130.574566589624
1305,7130.574566589624
622,26390068.439722646
2,1,12,21, 0, 5, 0.00,60.00,WinterDesignDay
7,-17.9
8,1272746.1542035735
9,353.5405983898815
10,0.0
11,0.0
12,0.0
13,0.0
14,1266624.0
469,2.028182526563258
470,4.365674317045892
471,2.028660447731942
472,4.365681350223202
473,2.0261499435438983
474,4.532763662238944
475,2.028656763117333
476,4.365683755312438
477,2.0273042172087434
478,5.243301080499869
479,2.0277825619755223
480,5.243306031229057
481,2.0255605218879107
482,5.148443577003473
483,2.0277788584360668
484,5.243307725331029
485,1.1089350614038271
486,1.1358660185415914
487,2.194242228331331
488,1.7875015719360907
489,2.6002966278225284
490,4.497938280910661
491,2.1044269228678036
492,4.448816545599543
493,2.1045389080482417
494,4.544606249474372
495,2.104301711873486
496,4.450204160613337
497,2.104546961354574
498,4.448774409730414
499,2.1081500396204573
500,5.096991452934985
501,2.107175837381667
502,4.9945645299846095
503,2.1080389871854295
504,5.09815864597612
505,2.108269037246777
506,5.096955980059803
507,1.8542966696598673
508,5.627208569673892
509,1.8542966696598673
510,5.627208569673892
511,0.9829448711168001
512,2.451258850560314
513,7.132707397970398
514,2.458658740270339
515,6.81966702516583
516,2.4988352950354735
517,3.7681263485227507
518,2.987602016645258
519,2.4985225000880105
520,3.7682455349891533
521,2.9877254292593545
522,2.5220925565220895
523,4.345489241613457
524,2.9876122238629828
525,2.4985225000880105
526,3.7682455349891533
527,2.9877254292593545
528,2.7412394079258577
529,1.289598934896662
715,16.850125674809213
716,-14.332276479021573
717,1.0992637882193013
1210,1.0
1211,0.0
1212,0.0
605,0.0
606,0.0
619,0.0
755,1304.8152363039299
756,2153.3140084514434
757,1555.6407005722801
758,0.0
759,3252.3824659285283
760,0.0
883,21.0
946,0.0
1009,0.0
1302,25670068.439722646
1303,7130.574566589624
1305,7130.574566589624
622,26390068.439722646
2,1,12,21, 0, 6, 0.00,60.00,WinterDesignDay
7,-17.9
8,1346910.8330807881
9,374.14189807799664
10,0.0
11,0.0
12,0.0
13,0.0
14,1266624.0
469,2.028678006881304
470,4.365603646985846
471,2.02916261252358
472,4.365610519403269
473,2.0266472576923515
474,4.532697765448024
475,2.029158929215944
476,4.365612924910539
477,2.0278011685338
478,5.243251763673423
479,2.028286202879835
480,5.243256600628895
481,2.0260588532739305
482,5.14839232896262
483,2.0282825006590697
484,5.243258294951413
485,1.1077197479950298
486,1.1351582692412658
487,2.1947710005265013
488,1.785947264141293
489,2.6001746731419066
490,4.498009885754542
491,2.10478993399457
492,4.449182917682003
493,2.1049032461562702
494,4.5449611640372725
495,2.1046659705643807
496,4.45056928532134
497,2.1049110752046656
498,4.449140266094366
499,2.1085190986762945
500,5.097290516192066
501,2.1075443493680983
502,4.994872753514851
503,2.108409264605269
504,5.098456726538554
505,2.108639182083958
506,5.0972546191436106
507,1.8542775510229257
508,5.627183166676378
509,1.8542775510229257
510,5.627183166676378
511,0.9828371872964405
512,2.4512980665870083
513,7.132711286652677
514,2.458697216314433
515,6.819670524387378
516,2.498770669438877
517,3.768213682835368
518,2.987567122151658
519,2.4984580492658335
520,3.768332765432956
521,2.9876904986714283
522,2.5220332611327514
523,4.345556150832036
524,2.9875773317044807
525,2.4984580492658335
526,3.768332765432956
527,2.9876904986714283
528,2.74124879628438
529,1.2896382537602578
715,16.894815390901222
716,-14.32997146029523
717,1.100451822226789
1210,1.0
1211,0.0
1212,0.0
605,0.0
606,0.0
619,0.0
755,1306.7218510860455
756,2159.7121082656913
757,1556.6293986226162
758,0.0
759,3252.58828331288
760,0.0
883,21.0
946,0.0
1009,0.0
1302,25670068.439722646
1303,7130.574566589624
1305,7130.574566589624
622,26390068.439722646
2,1,12,21, 0, 7, 0.00,60.00,WinterDesignDay
7,-17.9
8,1392910.2157086232
9,386.9195043635064
10,0.0
11,0.0
12,0.0
13,0.0
14,1266624.0
469,2.0015658618573484
470,4.365551966079911
471,2.002079893523014
472,4.365558717897951
473,1.9994793271109317
474,4.53264959997843
475,2.002076106993536
476,4.365561123716093
477,2.000665665814382
478,5.243215777758346
479,2.001180172501157
480,5.243220529562649
481,1.9988752283124027
482,5.148354927893677
483,2.0011763663895095
484,5.243222224049735
485,1.0874566150634624
486,1.1169382136802
487,2.1577426168737217
488,1.74974837763691
489,2.5835136646280827
490,4.498580747511469
491,2.097709104318149
492,4.45033782270918
493,2.097823970671403
494,4.546084581550865
495,2.09759075207583
496,4.451720022293109
497,2.097838450405784
498,4.450293376510112
499,2.101478642851649
500,5.098258152351329
501,2.100493693396868
502,4.995866209261812
503,2.1013745019533516
504,5.099421002871022
505,2.1016068370646153
506,5.0982207603331275
507,1.8549812121137603
508,5.627164486114344
509,1.8549812121137603
510,5.627164486114344
511,0.9832091741508029
512,2.4519334702641746
513,7.132717466205125
514,2.4593280265540036
515,6.8196760661447655
516,2.4988113386717297
517,3.7682819279865334
518,2.987475942475826
519,2.4984988802622823
520,3.76840093153405
521,2.9875992929098674
522,2.5220767684460856
523,4.3456082518680965
524,2.9874861545203917
525,2.4984988802622823
526,3.76840093153405
527,2.9875992929098674
528,2.7411624680006526
529,1.2896127147449015
715,16.586882109011576
716,-14.336816240747819
717,1.0998054506749817
1210,1.0
1211,0.0
1212,0.0
605,0.0
606,0.0
619,0.0
755,1293.8185042784453
756,2114.96138757492
757,1553.8006917149703
758,0.0
759,3252.4589578011855
760,0.0
883,21.0
946,0.0
1009,0.0
1302,25670068.439722646
1303,7130.574566589624
1305,7130.574566589624
622,26390068.439722646
2,1,12,21, 0, 8, 0.00,60.00,WinterDesignDay
7,-17.9
8,1280533.2106534794
9,355.70366962596654
10,0.0
11,0.0
12,0.0
13,0.0
14,1118555.6544
469,1.9580450960268456
470,4.365497456234382
471,1.9585696363532707
472,4.365504146701714
473,1.955839326641741
474,4.532598761232208
475,1.9585656555070488
476,4.365506552821357
477,1.9571006021767654
478,5.243177667529556
479,1.9576256640136218
480,5.243182376199996
481,1.9552054214723955
482,5.148315338652692
483,1.9576216623171177
484,5.243184070843361
485,1.0624513316229578
486,1.091783921623004
487,2.1009342883313766
488,1.6975095767633344
489,2.563380235580188
490,4.49853843016777
491,2.0887794550164855
492,4.448803455815279
493,2.088884877391856
494,4.5445964915395205
495,2.0886519895987865
496,4.450189325156517
497,2.0889036185315337
498,4.448759459105823
499,2.092566319310937
500,5.096990759701505
501,2.0915674924906282
502,4.9945631768432595
503,2.0924534476724714
504,5.098156453986858
505,2.092689425496568
506,5.096953711225609
507,1.8490071184622912
508,5.627144630775851
509,1.8490071184622912
510,5.627144630775851
511,0.9792409242128122
512,2.44685110650784
513,7.132718010971367
514,2.454276530319376
515,6.819676584165104
516,2.4980913060651537
517,3.76833771812313
518,2.9879277342791903
519,2.4977787566783114
520,3.7684566571306193
521,2.9880510390756934
522,2.5213731398532464
523,4.34565078753579
524,2.987937944805749
525,2.4977787566783114
526,3.7684566571306193
527,2.9880510390756934
528,2.7419446613066913
529,1.290093163254292
715,16.444572134071482
716,-14.365979266097566
717,1.0934078802318585
1210,1.0
1211,0.0
1212,0.0
605,0.0
606,0.0
619,0.0
755,1283.9191561192647
756,2087.2971351060023
757,1540.9595113577939
758,0.0
759,3251.307717561648
760,0.0
883,21.0
946,0.0
1009,0.0
1302,25670068.439722646
1303,7130.574566589624
1305,7130.574566589624
622,26390068.439722646
2,1,12,21, 0, 9, 0.00,60.00,WinterDesignDay
7,-17.9
8,684567.4379184691
9,190.15762164401917
10,0.0
11,0.0
12,0.0
13,0.0
14,517555.23264000006
469,1.9541392080228837
470,4.3654382903318485
471,1.9546567320386665
472,4.365444966778415
473,1.9519119693538496
474,4.532543531366143
475,1.9546527196082182
476,4.3654473731852885
477,1.9531884886017334
478,5.2431361931255545
479,1.953706532935743
480,5.243140892117182
481,1.9512738878194698
482,5.1482722513313535
483,1.9537024994447583
484,5.243142586902063
485,1.0614738405527189
486,1.0888655198193073
487,2.097809741665052
488,1.6858530191123802
489,2.561551204254786
490,4.4969386147172115
491,2.0881171625334125
492,4.4467652207749255
493,2.0882186852616407
494,4.542612294306547
495,2.0879871878732192
496,4.448156687812535
497,2.088239472194749
498,4.446722505082159
499,2.0918861276369394
500,5.095270590330556
501,2.0908889633604995
502,4.992799667292209
503,2.0917708008152274
504,5.096440800071969
505,2.092007377343466
506,5.095234643039259
507,1.8480615433861851
508,5.627191278047883
509,1.8480615433861851
510,5.627191278047883
511,0.9789994447142137
512,2.446164618279835
513,7.132650808918599
514,2.4536024290959646
515,6.819616385913713
516,2.497665051525771
517,3.7683485186539327
518,2.9881849263180325
519,2.4973522837502196
520,3.7684674459401695
521,2.988308308555667
522,2.5209580309139756
523,4.345658033972914
524,2.988195136329745
525,2.4973522837502196
526,3.7684674459401695
527,2.988308308555667
528,2.7420358917947993
529,1.2901831377197472
715,16.23682873423905
716,-14.381827086911098
717,1.0893801884406074
1210,1.0
1211,0.0
1212,0.0
605,0.0
606,0.0
619,0.0
755,1274.0565985610224
756,2055.4453282053273
757,1533.9475830778852
758,0.0
759,3250.5936294579933
760,0.0
883,21.0
946,0.0
1009,0.0
1302,25670068.439722646
1303,7130.574566589624
1305,7130.574566589624
622,26390068.439722646
2,1,12,21, 0,10, 0.00,60.00,WinterDesignDay
7,-17.9
8,464174.87326252554
9,128.93746479514596
10,0.0
11,0.0
12,0.0
13,0.0
14,306383.67936
469,1.9416751005102264
470,4.365425719225552
471,1.942180021776494
472,4.365432373296782
473,1.9394126947841548
474,4.532531815864448
475,1.9421759470595017
476,4.365434779712823
477,1.9407105095923718
478,5.2431277188722145
479,1.9412159491736607
480,5.243132402264903
481,1.938765290412698
482,5.148263356903518
483,1.941211852975621
484,5.2431340970394675
485,1.056729992086901
486,1.0819699743367008
487,2.0829292996612434
488,1.6639990793548485
489,2.5551045179131653
490,4.494951105271739
491,2.085245855672899
492,4.443845893360853
493,2.0853423566797247
494,4.539771240628728
495,2.0851093905923745
496,4.445245314219188
497,2.085363398839484
498,4.443804960583556
499,2.0890008284853296
500,5.092818746767982
501,2.0880032449704293
502,4.990283069942993
503,2.0888791899643397
504,5.093995315410348
505,2.0891173530127167
506,5.092784294532159
507,1.8452017709751745
508,5.6273009819716036
509,1.8452017709751745
510,5.6273009819716036
511,0.977055423227071
512,2.44350380044075
513,7.132595147011415
514,2.4509660591210833
515,6.81956634098065
516,2.4971692690644476
517,3.76831415419524
518,2.988526151631557
519,2.4968562387261892
520,3.7684331169349283
521,2.988649589770939
522,2.520473548442394
523,4.345630066906628
524,2.9885363601863046
525,2.4968562387261892
526,3.7684331169349283
527,2.988649589770939
528,2.742450639049831
529,1.2904024126726372
715,16.05079166259023
716,-14.40683358323449
717,1.0829643264076618
1210,1.0
1211,0.0
1212,0.0
605,0.0
606,0.0
619,0.0
755,1263.3728220131316
756,2023.6596220716056
757,1522.9535438103317
758,0.0
759,3249.449610487145
760,0.0
883,21.0
946,0.0
1009,0.0
1302,25670068.439722646
1303,7130.574566589624
1305,7130.574566589624
622,26390068.439722646
2,1,12,21, 0,11, 0.00,60.00,WinterDesignDay
7,-17.9
8,468399.2461092275
9,130.11090169700765
10,0.0
11,0.0
12,0.0
13,0.0
14,306383.67936
469,1.9725429689159326
470,4.365499230238409
471,1.973024435929331
472,4.3655058226639705
473,1.9703509160752346
474,4.532600549174131
475,1.9730204781074094
476,4.3655082286461715
477,1.9716067537064186
478,5.243180163894888
479,1.972088693963574
480,5.2431848040265745
481,1.9697226340315557
482,5.1483176420546926
483,1.9720847154398324
484,5.243186498562683
485,1.077993928470707
486,1.1005799812900392
487,2.126221848076229
488,1.6970113366052288
489,2.5718930987687894
490,4.492485688939667
491,2.090305965286701
492,4.440894785879849
493,2.090403368605731
494,4.536897512485423
495,2.0901686184354107
496,4.442301560960356
497,2.0904211398574333
498,4.4408548717399565
499,2.0940390759417493
500,5.090331806097672
501,2.0930487183337005
502,4.987731556695745
503,2.09391646416449
504,5.091514253933058
505,2.09415323719851
506,5.090298226798476
507,1.8432956132625749
508,5.627437185621034
509,1.8432956132625749
510,5.627437185621034
511,0.9760878790962457
512,2.4417356962700065
513,7.132526230025897
514,2.449218595105076
515,6.819504470373165
516,2.4966653891231436
517,3.7682477256871962
518,2.9888990745293897
519,2.496351949372566
520,3.7683667587516974
521,2.9890226351084594
522,2.5199802523056443
523,4.3455773029326
524,2.9889092808822015
525,2.496351949372566
526,3.7683667587516974
527,2.9890226351084594
528,2.7426958502889223
529,1.2904537884725011
715,16.238151579328687