Program Version,EnergyPlus, Version 9.6.0-f420c06a69, YMD=2022.04.11 09:31
1,5,Environment Title[],Latitude[deg],Longitude[deg],Time Zone[],Elevation[m]
2,8,Day of Simulation[],Month[],Day of Month[],DST Indicator[1=yes 0=no],Hour[],StartMinute[],EndMinute[],DayType
3,5,Cumulative Day of Simulation[],Month[],Day of Month[],DST Indicator[1=yes 0=no],DayType  ! When Daily Report Variables Requested
4,2,Cumulative Days of Simulation[],Month[]  ! When Monthly Report Variables Requested
5,1,Cumulative Days of Simulation[] ! When Run Period Report Variables Requested
6,1,Calendar Year of Simulation[] ! When Annual Report Variables Requested
1225,1,Heating:Electricity [J] !Hourly
End of Data Dictionary
1,RUN PERIOD 1,  39.74,-105.18,  -7.00,1829.00
2,1, 1, 1, 0, 1, 0.00,60.00,Monday
1225,37833219.50255872
2,1, 1, 1, 0, 2, 0.00,60.00,Monday
1225,36399322.938930765
2,1, 1, 1, 0, 3, 0.00,60.00,Monday
1225,36233111.12034406
2,1, 1, 1, 0, 4, 0.00,60.00,Monday
1225,35375644.254466996
2,1, 1, 1, 0, 5, 0.00,60.00,Monday
1225,34598489.433431216
2,1, 1, 1, 0, 6, 0.00,60.00,Monday
1225,32411280.927889865
2,1, 1, 1, 0, 7, 0.00,60.00,Monday
1225,30132272.57335129
2,1, 1, 1, 0, 8, 0.00,60.00,Monday
1225,29857749.497894067
2,1, 1, 1, 0, 9, 0.00,60.00,Monday
1225,25415321.795104824
2,1, 1, 1, 0,10, 0.00,60.00,Monday
1225,23336118.56727712
2,1, 1, 1, 0,11, 0.00,60.00,Monday
1225,15077533.674471611
2,1, 1, 1, 0,12, 0.00,60.00,Monday
1225,16156372.213222701
2,1, 1, 1, 0,13, 0.00,60.00,Monday
1225,19480195.835225403
2,1, 1, 1, 0,14, 0.00,60.00,Monday
1225,23855064.857850723
2,1, 1, 1, 0,15, 0.00,60.00,Monday
1225,29898059.06102741
2,1, 1, 1, 0,16, 0.00,60.00,Monday
1225,30776447.47084557
2,1, 1, 1, 0,17, 0.00,60.00,Monday
1225,26737600.718800813
2,1, 1, 1, 0,18, 0.00,60.00,Monday
1225,28262964.606565215
2,1, 1, 1, 0,19, 0.00,60.00,Monday
1225,32063674.84207425
2,1, 1, 1, 0,20, 0.00,60.00,Monday
1225,35189759.409935705
2,1, 1, 1, 0,21, 0.00,60.00,Monday
1225,37511380.77126658
2,1, 1, 1, 0,22, 0.00,60.00,Monday
1225,37763706.52656023
2,1, 1, 1, 0,23, 0.00,60.00,Monday
1225,43688160.010158904
2,1, 1, 1, 0,24, 0.00,60.00,Monday
1225,45954140.7868794
2,2, 1, 2, 0, 1, 0.00,60.00,Tuesday
1225,45954140.7868794
2,2, 1, 2, 0, 2, 0.00,60.00,Tuesday
1225,45954140.7868794
2,2, 1, 2, 0, 3, 0.00,60.00,Tuesday
1225,45954140.7868794
2,2, 1, 2, 0, 4, 0.00,60.00,Tuesday
1225,45954140.7868794
2,2, 1, 2, 0, 5, 0.00,60.00,Tuesday
1225,45954140.7868794
2,2, 1, 2, 0, 6, 0.00,60.00,Tuesday
1225,45954140.7868794
2,2, 1, 2, 0, 7, 0.00,60.00,Tuesday
1225,45954140.7868794
2,2, 1, 2, 0, 8, 0.00,60.00,Tuesday
1225,45954140.7868794
2,2, 1, 2, 0, 9, 0.00,60.00,Tuesday
1225,45954140.7868794
2,2, 1, 2, 0,10, 0.00,60.00,Tuesday
1225,45954140.7868794
2,2, 1, 2, 0,11, 0.00,60.00,Tuesday
1225,45954140.7868794
2,2, 1, 2, 0,12, 0.00,60.00,Tuesday
1225,43551793.88853146
2,2, 1, 2, 0,13, 0.00,60.00,Tuesday
1225,37145560.562560365
2,2, 1, 2, 0,14, 0.00,60.00,Tuesday
1225,36596810.11352369
2,2, 1, 2, 0,15, 0.00,60.00,Tuesday
1225,30983106.890190337
2,2, 1, 2, 0,16, 0.00,60.00,Tuesday
1225,36102539.424836285
2,2, 1, 2, 0,17, 0.00,60.00,Tuesday
1225,38901538.845630996
2,2, 1, 2, 0,18, 0.00,60.00,Tuesday
1225,43053704.07984225
2,2, 1, 2, 0,19, 0.00,60.00,Tuesday
1225,45954140.7868794
2,2, 1, 2, 0,20, 0.00,60.00,Tuesday
1225,45954140.7868794
2,2, 1, 2, 0,21, 0.00,60.00,Tuesday
1225,45954140.7868794
2,2, 1, 2, 0,22, 0.00,60.00,Tuesday
1225,45954140.7868794
2,2, 1, 2, 0,23, 0.00,60.00,Tuesday
1225,45954140.7868794
2,2, 1, 2, 0,24, 0.00,60.00,Tuesday
1225,45954140.7868794
End of Data
 Number of Records Written=          48
