Program Version,EnergyPlus, Version 9.6.0-f420c06a69, YMD=2022.04.10 12:10
1,5,Environment Title[],Latitude[deg],Longitude[deg],Time Zone[],Elevation[m]
2,8,Day of Simulation[],Month[],Day of Month[],DST Indicator[1=yes 0=no],Hour[],StartMinute[],EndMinute[],DayType
3,5,Cumulative Day of Simulation[],Month[],Day of Month[],DST Indicator[1=yes 0=no],DayType  ! When Daily Report Variables Requested
4,2,Cumulative Days of Simulation[],Month[]  ! When Monthly Report Variables Requested
5,1,Cumulative Days of Simulation[] ! When Run Period Report Variables Requested
6,1,Calendar Year of Simulation[] ! When Annual Report Variables Requested
7,1,Environment,Site Outdoor Air Drybulb Temperature [C] !Hourly
642,1,LIVING ZONE,Zone Mean Air Temperature [C] !Hourly
643,1,UNFINISHED ATTIC ZONE,Zone Mean Air Temperature [C] !Hourly
778,1,LIVING ZONE,Zone Thermostat Heating Setpoint Temperature [C] !Hourly
841,1,UNFINISHED ATTIC ZONE,Zone Thermostat Heating Setpoint Temperature [C] !Hourly
993,1,Heating:Electricity [J] !Hourly
End of Data Dictionary
1,RUN PERIOD 1,  39.74,-105.18,  -7.00,1829.00
2,1, 1, 1, 0, 1, 0.00,60.00,Monday
7,-4.5
642,21.49993517171429
643,-4.621880177324368
778,21.5
841,0.0
993,32506587.275002807
2,1, 1, 1, 0, 2, 0.00,60.00,Monday
7,-3.0
642,21.4979346403885
643,-4.22547591252657
778,21.5
841,0.0
993,30988352.843912713
2,1, 1, 1, 0, 3, 0.00,60.00,Monday
7,-3.625
642,21.49995664382795
643,-3.999561748013431
778,21.5
841,0.0
993,33425487.135758374
2,1, 1, 1, 0, 4, 0.00,60.00,Monday
7,-2.75
642,21.50014579249946
643,-3.784843208395804
778,21.5
841,0.0
993,31270756.03932161
2,1, 1, 1, 0, 5, 0.00,60.00,Monday
7,-2.0
642,21.49827883990149
643,-3.145403937336723
778,21.5
841,0.0
993,30883375.771711756
2,1, 1, 1, 0, 6, 0.00,60.00,Monday
7,-1.375
642,21.501373349692827
643,-2.379321922902733
778,21.5
841,0.0
993,29691851.747627977
2,1, 1, 1, 0, 7, 0.00,60.00,Monday
7,-1.0
642,21.500369584591304
643,-1.8977041773054726
778,21.5
841,0.0
993,29035869.025602274
2,1, 1, 1, 0, 8, 0.00,60.00,Monday
7,-1.0
642,21.498275313204843
643,-1.3633090714706753
778,21.5
841,0.0
993,28789523.907825463
2,1, 1, 1, 0, 9, 0.00,60.00,Monday
7,-0.375
642,21.500532616057647
643,0.6173133035548835
778,21.5
841,0.0
993,26676860.032302864
2,1, 1, 1, 0,10, 0.00,60.00,Monday
7,1.25
642,21.49997266314541
643,3.22027418117686
778,21.5
841,0.0
993,24931191.89363908
2,1, 1, 1, 0,11, 0.00,60.00,Monday
7,2.0
642,21.500208266928222
643,5.535021134253858
778,21.5
841,0.0
993,23825094.076648097
2,1, 1, 1, 0,12, 0.00,60.00,Monday
7,1.375
642,21.500789674579465
643,7.722943586096171
778,21.5
841,0.0
993,26053097.125726867
2,1, 1, 1, 0,13, 0.00,60.00,Monday
7,2.25
642,21.50035544929473
643,7.887904072446733
778,21.5
841,0.0
993,24779133.475749563
2,1, 1, 1, 0,14, 0.00,60.00,Monday
7,2.375
642,21.498842343108265
643,7.386035347080444
778,21.5
841,0.0
993,24676017.557992052
2,1, 1, 1, 0,15, 0.00,60.00,Monday
7,1.375
642,21.500494243153106
643,5.7195076069169275
778,21.5
841,0.0
993,27394843.55568506
2,1, 1, 1, 0,16, 0.00,60.00,Monday
7,1.0
642,21.499921672461568
643,4.284010562533049
778,21.5
841,0.0
993,25551825.168556757
2,1, 1, 1, 0,17, 0.00,60.00,Monday
7,0.375
642,21.500114187993926
643,3.399692455856547
778,21.5
841,0.0
993,25609158.08232081
2,1, 1, 1, 0,18, 0.00,60.00,Monday
7,-0.625
642,21.500082908979312
643,2.147403762465691
778,21.5
841,0.0
993,27556845.5928295
2,1, 1, 1, 0,19, 0.00,60.00,Monday
7,-1.625
642,21.500539218669022
643,0.8413300992433195
778,21.5
841,0.0
993,28717028.203151055
2,1, 1, 1, 0,20, 0.00,60.00,Monday
7,-3.25
642,21.49979792849495
643,-0.6476548039387929
778,21.5
841,0.0
993,33238360.38337598
2,1, 1, 1, 0,21, 0.00,60.00,Monday
7,-4.625
642,21.498822953613296
643,-2.0438960616331885
778,21.5
841,0.0
993,34500276.70352514
2,1, 1, 1, 0,22, 0.00,60.00,Monday
7,-5.625
642,21.499994094026622
643,-2.944404274218008
778,21.5
841,0.0
993,34007367.38284838
2,1, 1, 1, 0,23, 0.00,60.00,Monday
7,-6.625
642,21.499343290823656
643,-4.033164247320013
778,21.5
841,0.0
993,37628762.443852246
2,1, 1, 1, 0,24, 0.00,60.00,Monday
7,-7.0
642,21.50027415988515
643,-4.959097587539569
778,21.5
841,0.0
993,40546309.99651796
End of Data
 Number of Records Written=         144
